+ 0.5 1 0 tcp 1000 ------- 1 1.0 7.0 0 0
- 0.5 1 0 tcp 1000 ------- 1 1.0 7.0 0 0
r 0.514 1 0 tcp 1000 ------- 1 1.0 7.0 0 0
+ 0.514 0 3 tcp 1000 ------- 1 1.0 7.0 0 0
- 0.514 0 3 tcp 1000 ------- 1 1.0 7.0 0 0
r 0.542 0 3 tcp 1000 ------- 1 1.0 7.0 0 0
h 0.542 3 9 tcp 1000 ------- 1 1.0 7.0 0 0
+ 0.582 3 9 tcp 1000 ------- 1 1.0 7.0 0 0
- 0.582 3 9 tcp 1000 ------- 1 1.0 7.0 0 0
r 0.637848 9 7 tcp 1000 ------- 1 1.0 7.0 0 0
h 0.637848 7 9 ack 40 ------- 1 7.0 1.0 0 1
+ 0.677848 7 9 ack 40 ------- 1 7.0 1.0 0 1
- 0.677848 7 9 ack 40 ------- 1 7.0 1.0 0 1
r 0.718852 9 3 ack 40 ------- 1 7.0 1.0 0 1
+ 0.718852 3 0 ack 40 ------- 1 7.0 1.0 0 1
- 0.718852 3 0 ack 40 ------- 1 7.0 1.0 0 1
r 0.739172 3 0 ack 40 ------- 1 7.0 1.0 0 1
+ 0.739172 0 1 ack 40 ------- 1 7.0 1.0 0 1
- 0.739172 0 1 ack 40 ------- 1 7.0 1.0 0 1
r 0.749332 0 1 ack 40 ------- 1 7.0 1.0 0 1
+ 0.749332 1 0 tcp 1000 ------- 1 1.0 7.0 1 2
- 0.749332 1 0 tcp 1000 ------- 1 1.0 7.0 1 2
r 0.763332 1 0 tcp 1000 ------- 1 1.0 7.0 1 2
+ 0.763332 0 3 tcp 1000 ------- 1 1.0 7.0 1 2
- 0.763332 0 3 tcp 1000 ------- 1 1.0 7.0 1 2
r 0.791332 0 3 tcp 1000 ------- 1 1.0 7.0 1 2
h 0.791332 3 9 tcp 1000 ------- 1 1.0 7.0 1 2
+ 0.831332 3 9 tcp 1000 ------- 1 1.0 7.0 1 2
- 0.831332 3 9 tcp 1000 ------- 1 1.0 7.0 1 2
r 0.88718 9 7 tcp 1000 ------- 1 1.0 7.0 1 2
h 0.88718 7 9 ack 40 ------- 1 7.0 1.0 1 3
+ 0.92718 7 9 ack 40 ------- 1 7.0 1.0 1 3
- 0.92718 7 9 ack 40 ------- 1 7.0 1.0 1 3
r 0.968184 9 3 ack 40 ------- 1 7.0 1.0 1 3
+ 0.968184 3 0 ack 40 ------- 1 7.0 1.0 1 3
- 0.968184 3 0 ack 40 ------- 1 7.0 1.0 1 3
r 0.988504 3 0 ack 40 ------- 1 7.0 1.0 1 3
+ 0.988504 0 1 ack 40 ------- 1 7.0 1.0 1 3
- 0.988504 0 1 ack 40 ------- 1 7.0 1.0 1 3
r 0.998664 0 1 ack 40 ------- 1 7.0 1.0 1 3
+ 0.998664 1 0 tcp 1000 ------- 1 1.0 7.0 2 4
- 0.998664 1 0 tcp 1000 ------- 1 1.0 7.0 2 4
+ 0.998664 1 0 tcp 1000 ------- 1 1.0 7.0 3 5
+ 0.998664 1 0 tcp 1000 ------- 1 1.0 7.0 4 6
+ 1 2 0 tcp 40 ------- 2 2.0 8.0 0 7
- 1 2 0 tcp 40 ------- 2 2.0 8.0 0 7
- 1.002664 1 0 tcp 1000 ------- 1 1.0 7.0 3 5
- 1.006664 1 0 tcp 1000 ------- 1 1.0 7.0 4 6
r 1.01016 2 0 tcp 40 ------- 2 2.0 8.0 0 7
+ 1.01016 0 3 tcp 40 ------- 2 2.0 8.0 0 7
- 1.01016 0 3 tcp 40 ------- 2 2.0 8.0 0 7
r 1.012664 1 0 tcp 1000 ------- 1 1.0 7.0 2 4
+ 1.012664 0 3 tcp 1000 ------- 1 1.0 7.0 2 4
- 1.012664 0 3 tcp 1000 ------- 1 1.0 7.0 2 4
r 1.016664 1 0 tcp 1000 ------- 1 1.0 7.0 3 5
+ 1.016664 0 3 tcp 1000 ------- 1 1.0 7.0 3 5
r 1.020664 1 0 tcp 1000 ------- 1 1.0 7.0 4 6
+ 1.020664 0 3 tcp 1000 ------- 1 1.0 7.0 4 6
- 1.020664 0 3 tcp 1000 ------- 1 1.0 7.0 3 5
- 1.028664 0 3 tcp 1000 ------- 1 1.0 7.0 4 6
r 1.03048 0 3 tcp 40 ------- 2 2.0 8.0 0 7
h 1.03048 3 9 tcp 40 ------- 2 2.0 8.0 0 7
r 1.040664 0 3 tcp 1000 ------- 1 1.0 7.0 2 4
h 1.040664 3 9 tcp 1000 ------- 1 1.0 7.0 2 4
r 1.048664 0 3 tcp 1000 ------- 1 1.0 7.0 3 5
h 1.048664 3 9 tcp 1000 ------- 1 1.0 7.0 3 5
r 1.056664 0 3 tcp 1000 ------- 1 1.0 7.0 4 6
h 1.056664 3 9 tcp 1000 ------- 1 1.0 7.0 4 6
+ 1.07048 3 9 tcp 40 ------- 2 2.0 8.0 0 7
- 1.07048 3 9 tcp 40 ------- 2 2.0 8.0 0 7
+ 1.080664 3 9 tcp 1000 ------- 1 1.0 7.0 2 4
- 1.080664 3 9 tcp 1000 ------- 1 1.0 7.0 2 4
+ 1.088664 3 9 tcp 1000 ------- 1 1.0 7.0 3 5
+ 1.096664 3 9 tcp 1000 ------- 1 1.0 7.0 4 6
- 1.096695 3 9 tcp 1000 ------- 1 1.0 7.0 3 5
r 1.111484 9 8 tcp 40 ------- 2 2.0 8.0 0 7
h 1.111484 8 9 ack 40 ------- 2 8.0 2.0 0 8
- 1.112726 3 9 tcp 1000 ------- 1 1.0 7.0 4 6
r 1.136511 9 7 tcp 1000 ------- 1 1.0 7.0 2 4
h 1.136511 7 9 ack 40 ------- 1 7.0 1.0 2 9
+ 1.151484 8 9 ack 40 ------- 2 8.0 2.0 0 8
- 1.151484 8 9 ack 40 ------- 2 8.0 2.0 0 8
r 1.152543 9 7 tcp 1000 ------- 1 1.0 7.0 3 5
h 1.152543 7 9 ack 40 ------- 1 7.0 1.0 3 10
r 1.168574 9 7 tcp 1000 ------- 1 1.0 7.0 4 6
h 1.168574 7 9 ack 40 ------- 1 7.0 1.0 4 11
+ 1.176511 7 9 ack 40 ------- 1 7.0 1.0 2 9
- 1.176511 7 9 ack 40 ------- 1 7.0 1.0 2 9
r 1.192488 9 3 ack 40 ------- 2 8.0 2.0 0 8
+ 1.192488 3 0 ack 40 ------- 2 8.0 2.0 0 8
- 1.192488 3 0 ack 40 ------- 2 8.0 2.0 0 8
+ 1.192543 7 9 ack 40 ------- 1 7.0 1.0 3 10
- 1.192543 7 9 ack 40 ------- 1 7.0 1.0 3 10
+ 1.208574 7 9 ack 40 ------- 1 7.0 1.0 4 11
- 1.208574 7 9 ack 40 ------- 1 7.0 1.0 4 11
r 1.212808 3 0 ack 40 ------- 2 8.0 2.0 0 8
+ 1.212808 0 2 ack 40 ------- 2 8.0 2.0 0 8
- 1.212808 0 2 ack 40 ------- 2 8.0 2.0 0 8
r 1.217515 9 3 ack 40 ------- 1 7.0 1.0 2 9
+ 1.217515 3 0 ack 40 ------- 1 7.0 1.0 2 9
- 1.217515 3 0 ack 40 ------- 1 7.0 1.0 2 9
r 1.222968 0 2 ack 40 ------- 2 8.0 2.0 0 8
+ 1.222968 2 0 tcp 1040 ------- 2 2.0 8.0 1 12
- 1.222968 2 0 tcp 1040 ------- 2 2.0 8.0 1 12
+ 1.222968 2 0 tcp 1040 ------- 2 2.0 8.0 2 13
- 1.227128 2 0 tcp 1040 ------- 2 2.0 8.0 2 13
r 1.233547 9 3 ack 40 ------- 1 7.0 1.0 3 10
+ 1.233547 3 0 ack 40 ------- 1 7.0 1.0 3 10
- 1.233547 3 0 ack 40 ------- 1 7.0 1.0 3 10
r 1.237128 2 0 tcp 1040 ------- 2 2.0 8.0 1 12
+ 1.237128 0 3 tcp 1040 ------- 2 2.0 8.0 1 12
- 1.237128 0 3 tcp 1040 ------- 2 2.0 8.0 1 12
r 1.237835 3 0 ack 40 ------- 1 7.0 1.0 2 9
+ 1.237835 0 1 ack 40 ------- 1 7.0 1.0 2 9
- 1.237835 0 1 ack 40 ------- 1 7.0 1.0 2 9
r 1.241288 2 0 tcp 1040 ------- 2 2.0 8.0 2 13
+ 1.241288 0 3 tcp 1040 ------- 2 2.0 8.0 2 13
- 1.245448 0 3 tcp 1040 ------- 2 2.0 8.0 2 13
r 1.247995 0 1 ack 40 ------- 1 7.0 1.0 2 9
+ 1.247995 1 0 tcp 1000 ------- 1 1.0 7.0 5 14
- 1.247995 1 0 tcp 1000 ------- 1 1.0 7.0 5 14
r 1.249578 9 3 ack 40 ------- 1 7.0 1.0 4 11
+ 1.249578 3 0 ack 40 ------- 1 7.0 1.0 4 11
- 1.249578 3 0 ack 40 ------- 1 7.0 1.0 4 11
r 1.253867 3 0 ack 40 ------- 1 7.0 1.0 3 10
+ 1.253867 0 1 ack 40 ------- 1 7.0 1.0 3 10
- 1.253867 0 1 ack 40 ------- 1 7.0 1.0 3 10
r 1.261995 1 0 tcp 1000 ------- 1 1.0 7.0 5 14
+ 1.261995 0 3 tcp 1000 ------- 1 1.0 7.0 5 14
- 1.261995 0 3 tcp 1000 ------- 1 1.0 7.0 5 14
r 1.264027 0 1 ack 40 ------- 1 7.0 1.0 3 10
+ 1.264027 1 0 tcp 1000 ------- 1 1.0 7.0 6 15
- 1.264027 1 0 tcp 1000 ------- 1 1.0 7.0 6 15
r 1.265448 0 3 tcp 1040 ------- 2 2.0 8.0 1 12
h 1.265448 3 9 tcp 1040 ------- 2 2.0 8.0 1 12
r 1.269898 3 0 ack 40 ------- 1 7.0 1.0 4 11
+ 1.269898 0 1 ack 40 ------- 1 7.0 1.0 4 11
- 1.269898 0 1 ack 40 ------- 1 7.0 1.0 4 11
r 1.273768 0 3 tcp 1040 ------- 2 2.0 8.0 2 13
h 1.273768 3 9 tcp 1040 ------- 2 2.0 8.0 2 13
r 1.278027 1 0 tcp 1000 ------- 1 1.0 7.0 6 15
+ 1.278027 0 3 tcp 1000 ------- 1 1.0 7.0 6 15
- 1.278027 0 3 tcp 1000 ------- 1 1.0 7.0 6 15
r 1.280058 0 1 ack 40 ------- 1 7.0 1.0 4 11
+ 1.280058 1 0 tcp 1000 ------- 1 1.0 7.0 7 16
- 1.280058 1 0 tcp 1000 ------- 1 1.0 7.0 7 16
r 1.289995 0 3 tcp 1000 ------- 1 1.0 7.0 5 14
h 1.289995 3 9 tcp 1000 ------- 1 1.0 7.0 5 14
r 1.294058 1 0 tcp 1000 ------- 1 1.0 7.0 7 16
+ 1.294058 0 3 tcp 1000 ------- 1 1.0 7.0 7 16
- 1.294058 0 3 tcp 1000 ------- 1 1.0 7.0 7 16
+ 1.305448 3 9 tcp 1040 ------- 2 2.0 8.0 1 12
- 1.305448 3 9 tcp 1040 ------- 2 2.0 8.0 1 12
r 1.306027 0 3 tcp 1000 ------- 1 1.0 7.0 6 15
h 1.306027 3 9 tcp 1000 ------- 1 1.0 7.0 6 15
+ 1.313768 3 9 tcp 1040 ------- 2 2.0 8.0 2 13
r 1.322058 0 3 tcp 1000 ------- 1 1.0 7.0 7 16
h 1.322058 3 9 tcp 1000 ------- 1 1.0 7.0 7 16
- 1.322104 3 9 tcp 1040 ------- 2 2.0 8.0 2 13
+ 1.329995 3 9 tcp 1000 ------- 1 1.0 7.0 5 14
- 1.33876 3 9 tcp 1000 ------- 1 1.0 7.0 5 14
+ 1.346027 3 9 tcp 1000 ------- 1 1.0 7.0 6 15
- 1.354792 3 9 tcp 1000 ------- 1 1.0 7.0 6 15
r 1.361921 9 8 tcp 1040 ------- 2 2.0 8.0 1 12
h 1.361921 8 9 ack 40 ------- 2 8.0 2.0 1 17
+ 1.362058 3 9 tcp 1000 ------- 1 1.0 7.0 7 16
- 1.370823 3 9 tcp 1000 ------- 1 1.0 7.0 7 16
r 1.378577 9 8 tcp 1040 ------- 2 2.0 8.0 2 13
h 1.378577 8 9 ack 40 ------- 2 8.0 2.0 2 18
r 1.394608 9 7 tcp 1000 ------- 1 1.0 7.0 5 14
h 1.394608 7 9 ack 40 ------- 1 7.0 1.0 5 19
+ 1.401921 8 9 ack 40 ------- 2 8.0 2.0 1 17
- 1.401921 8 9 ack 40 ------- 2 8.0 2.0 1 17
r 1.410639 9 7 tcp 1000 ------- 1 1.0 7.0 6 15
h 1.410639 7 9 ack 40 ------- 1 7.0 1.0 6 20
+ 1.418577 8 9 ack 40 ------- 2 8.0 2.0 2 18
- 1.418577 8 9 ack 40 ------- 2 8.0 2.0 2 18
r 1.426671 9 7 tcp 1000 ------- 1 1.0 7.0 7 16
h 1.426671 7 9 ack 40 ------- 1 7.0 1.0 7 21
+ 1.434608 7 9 ack 40 ------- 1 7.0 1.0 5 19
- 1.434608 7 9 ack 40 ------- 1 7.0 1.0 5 19
r 1.442925 9 3 ack 40 ------- 2 8.0 2.0 1 17
+ 1.442925 3 0 ack 40 ------- 2 8.0 2.0 1 17
- 1.442925 3 0 ack 40 ------- 2 8.0 2.0 1 17
+ 1.450639 7 9 ack 40 ------- 1 7.0 1.0 6 20
- 1.450639 7 9 ack 40 ------- 1 7.0 1.0 6 20
r 1.459581 9 3 ack 40 ------- 2 8.0 2.0 2 18
+ 1.459581 3 0 ack 40 ------- 2 8.0 2.0 2 18
- 1.459581 3 0 ack 40 ------- 2 8.0 2.0 2 18
r 1.463245 3 0 ack 40 ------- 2 8.0 2.0 1 17
+ 1.463245 0 2 ack 40 ------- 2 8.0 2.0 1 17
- 1.463245 0 2 ack 40 ------- 2 8.0 2.0 1 17
+ 1.466671 7 9 ack 40 ------- 1 7.0 1.0 7 21
- 1.466671 7 9 ack 40 ------- 1 7.0 1.0 7 21
r 1.473405 0 2 ack 40 ------- 2 8.0 2.0 1 17
+ 1.473405 2 0 tcp 1040 ------- 2 2.0 8.0 3 22
- 1.473405 2 0 tcp 1040 ------- 2 2.0 8.0 3 22
+ 1.473405 2 0 tcp 1040 ------- 2 2.0 8.0 4 23
r 1.475612 9 3 ack 40 ------- 1 7.0 1.0 5 19
+ 1.475612 3 0 ack 40 ------- 1 7.0 1.0 5 19
- 1.475612 3 0 ack 40 ------- 1 7.0 1.0 5 19
- 1.477565 2 0 tcp 1040 ------- 2 2.0 8.0 4 23
r 1.479901 3 0 ack 40 ------- 2 8.0 2.0 2 18
+ 1.479901 0 2 ack 40 ------- 2 8.0 2.0 2 18
- 1.479901 0 2 ack 40 ------- 2 8.0 2.0 2 18
r 1.487565 2 0 tcp 1040 ------- 2 2.0 8.0 3 22
+ 1.487565 0 3 tcp 1040 ------- 2 2.0 8.0 3 22
- 1.487565 0 3 tcp 1040 ------- 2 2.0 8.0 3 22
r 1.490061 0 2 ack 40 ------- 2 8.0 2.0 2 18
+ 1.490061 2 0 tcp 1040 ------- 2 2.0 8.0 5 24
- 1.490061 2 0 tcp 1040 ------- 2 2.0 8.0 5 24
+ 1.490061 2 0 tcp 1040 ------- 2 2.0 8.0 6 25
r 1.491643 9 3 ack 40 ------- 1 7.0 1.0 6 20
+ 1.491643 3 0 ack 40 ------- 1 7.0 1.0 6 20
- 1.491643 3 0 ack 40 ------- 1 7.0 1.0 6 20
r 1.491725 2 0 tcp 1040 ------- 2 2.0 8.0 4 23
+ 1.491725 0 3 tcp 1040 ------- 2 2.0 8.0 4 23
- 1.494221 2 0 tcp 1040 ------- 2 2.0 8.0 6 25
- 1.495885 0 3 tcp 1040 ------- 2 2.0 8.0 4 23
r 1.495932 3 0 ack 40 ------- 1 7.0 1.0 5 19
+ 1.495932 0 1 ack 40 ------- 1 7.0 1.0 5 19
- 1.495932 0 1 ack 40 ------- 1 7.0 1.0 5 19
r 1.504221 2 0 tcp 1040 ------- 2 2.0 8.0 5 24
+ 1.504221 0 3 tcp 1040 ------- 2 2.0 8.0 5 24
- 1.504221 0 3 tcp 1040 ------- 2 2.0 8.0 5 24
r 1.506092 0 1 ack 40 ------- 1 7.0 1.0 5 19
+ 1.506092 1 0 tcp 1000 ------- 1 1.0 7.0 8 26
- 1.506092 1 0 tcp 1000 ------- 1 1.0 7.0 8 26
+ 1.506092 1 0 tcp 1000 ------- 1 1.0 7.0 9 27
r 1.507675 9 3 ack 40 ------- 1 7.0 1.0 7 21
+ 1.507675 3 0 ack 40 ------- 1 7.0 1.0 7 21
- 1.507675 3 0 ack 40 ------- 1 7.0 1.0 7 21
r 1.508381 2 0 tcp 1040 ------- 2 2.0 8.0 6 25
+ 1.508381 0 3 tcp 1040 ------- 2 2.0 8.0 6 25
- 1.510092 1 0 tcp 1000 ------- 1 1.0 7.0 9 27
r 1.511963 3 0 ack 40 ------- 1 7.0 1.0 6 20
+ 1.511963 0 1 ack 40 ------- 1 7.0 1.0 6 20
- 1.511963 0 1 ack 40 ------- 1 7.0 1.0 6 20
- 1.512541 0 3 tcp 1040 ------- 2 2.0 8.0 6 25
r 1.515885 0 3 tcp 1040 ------- 2 2.0 8.0 3 22
h 1.515885 3 9 tcp 1040 ------- 2 2.0 8.0 3 22
r 1.520092 1 0 tcp 1000 ------- 1 1.0 7.0 8 26
+ 1.520092 0 3 tcp 1000 ------- 1 1.0 7.0 8 26
- 1.520861 0 3 tcp 1000 ------- 1 1.0 7.0 8 26
r 1.522123 0 1 ack 40 ------- 1 7.0 1.0 6 20
+ 1.522123 1 0 tcp 1000 ------- 1 1.0 7.0 10 28
- 1.522123 1 0 tcp 1000 ------- 1 1.0 7.0 10 28
+ 1.522123 1 0 tcp 1000 ------- 1 1.0 7.0 11 29
r 1.524092 1 0 tcp 1000 ------- 1 1.0 7.0 9 27
+ 1.524092 0 3 tcp 1000 ------- 1 1.0 7.0 9 27
r 1.524205 0 3 tcp 1040 ------- 2 2.0 8.0 4 23
h 1.524205 3 9 tcp 1040 ------- 2 2.0 8.0 4 23
- 1.526123 1 0 tcp 1000 ------- 1 1.0 7.0 11 29
r 1.527995 3 0 ack 40 ------- 1 7.0 1.0 7 21
+ 1.527995 0 1 ack 40 ------- 1 7.0 1.0 7 21
- 1.527995 0 1 ack 40 ------- 1 7.0 1.0 7 21
- 1.528861 0 3 tcp 1000 ------- 1 1.0 7.0 9 27
r 1.532541 0 3 tcp 1040 ------- 2 2.0 8.0 5 24
h 1.532541 3 9 tcp 1040 ------- 2 2.0 8.0 5 24
r 1.536123 1 0 tcp 1000 ------- 1 1.0 7.0 10 28
+ 1.536123 0 3 tcp 1000 ------- 1 1.0 7.0 10 28
- 1.536861 0 3 tcp 1000 ------- 1 1.0 7.0 10 28
r 1.538155 0 1 ack 40 ------- 1 7.0 1.0 7 21
+ 1.538155 1 0 tcp 1000 ------- 1 1.0 7.0 12 30
- 1.538155 1 0 tcp 1000 ------- 1 1.0 7.0 12 30
+ 1.538155 1 0 tcp 1000 ------- 1 1.0 7.0 13 31
r 1.540123 1 0 tcp 1000 ------- 1 1.0 7.0 11 29
+ 1.540123 0 3 tcp 1000 ------- 1 1.0 7.0 11 29
r 1.540861 0 3 tcp 1040 ------- 2 2.0 8.0 6 25
h 1.540861 3 9 tcp 1040 ------- 2 2.0 8.0 6 25
- 1.542155 1 0 tcp 1000 ------- 1 1.0 7.0 13 31
- 1.544861 0 3 tcp 1000 ------- 1 1.0 7.0 11 29
r 1.548861 0 3 tcp 1000 ------- 1 1.0 7.0 8 26
h 1.548861 3 9 tcp 1000 ------- 1 1.0 7.0 8 26
r 1.552155 1 0 tcp 1000 ------- 1 1.0 7.0 12 30
+ 1.552155 0 3 tcp 1000 ------- 1 1.0 7.0 12 30
- 1.552861 0 3 tcp 1000 ------- 1 1.0 7.0 12 30
+ 1.555885 3 9 tcp 1040 ------- 2 2.0 8.0 3 22
- 1.555885 3 9 tcp 1040 ------- 2 2.0 8.0 3 22
r 1.556155 1 0 tcp 1000 ------- 1 1.0 7.0 13 31
+ 1.556155 0 3 tcp 1000 ------- 1 1.0 7.0 13 31
r 1.556861 0 3 tcp 1000 ------- 1 1.0 7.0 9 27
h 1.556861 3 9 tcp 1000 ------- 1 1.0 7.0 9 27
- 1.560861 0 3 tcp 1000 ------- 1 1.0 7.0 13 31
+ 1.564205 3 9 tcp 1040 ------- 2 2.0 8.0 4 23
r 1.564861 0 3 tcp 1000 ------- 1 1.0 7.0 10 28
h 1.564861 3 9 tcp 1000 ------- 1 1.0 7.0 10 28
+ 1.572541 3 9 tcp 1040 ------- 2 2.0 8.0 5 24
- 1.572541 3 9 tcp 1040 ------- 2 2.0 8.0 4 23
r 1.572861 0 3 tcp 1000 ------- 1 1.0 7.0 11 29
h 1.572861 3 9 tcp 1000 ------- 1 1.0 7.0 11 29
+ 1.580861 3 9 tcp 1040 ------- 2 2.0 8.0 6 25
r 1.580861 0 3 tcp 1000 ------- 1 1.0 7.0 12 30
h 1.580861 3 9 tcp 1000 ------- 1 1.0 7.0 12 30
+ 1.588861 3 9 tcp 1000 ------- 1 1.0 7.0 8 26
r 1.588861 0 3 tcp 1000 ------- 1 1.0 7.0 13 31
h 1.588861 3 9 tcp 1000 ------- 1 1.0 7.0 13 31
- 1.589197 3 9 tcp 1040 ------- 2 2.0 8.0 5 24
+ 1.596861 3 9 tcp 1000 ------- 1 1.0 7.0 9 27
+ 1.604861 3 9 tcp 1000 ------- 1 1.0 7.0 10 28
- 1.605853 3 9 tcp 1040 ------- 2 2.0 8.0 6 25
r 1.612357 9 8 tcp 1040 ------- 2 2.0 8.0 3 22
h 1.612357 8 9 ack 40 ------- 2 8.0 2.0 3 32
+ 1.612861 3 9 tcp 1000 ------- 1 1.0 7.0 11 29
+ 1.620861 3 9 tcp 1000 ------- 1 1.0 7.0 12 30
- 1.62251 3 9 tcp 1000 ------- 1 1.0 7.0 8 26
+ 1.628861 3 9 tcp 1000 ------- 1 1.0 7.0 13 31
r 1.629014 9 8 tcp 1040 ------- 2 2.0 8.0 4 23
h 1.629014 8 9 ack 40 ------- 2 8.0 2.0 4 33
- 1.638541 3 9 tcp 1000 ------- 1 1.0 7.0 9 27
r 1.64567 9 8 tcp 1040 ------- 2 2.0 8.0 5 24
h 1.64567 8 9 ack 40 ------- 2 8.0 2.0 5 34
+ 1.652357 8 9 ack 40 ------- 2 8.0 2.0 3 32
- 1.652357 8 9 ack 40 ------- 2 8.0 2.0 3 32
- 1.654572 3 9 tcp 1000 ------- 1 1.0 7.0 10 28
r 1.662326 9 8 tcp 1040 ------- 2 2.0 8.0 6 25
h 1.662326 8 9 ack 40 ------- 2 8.0 2.0 6 35
+ 1.669014 8 9 ack 40 ------- 2 8.0 2.0 4 33
- 1.669014 8 9 ack 40 ------- 2 8.0 2.0 4 33
- 1.672049 3 9 tcp 1000 ------- 1 1.0 7.0 11 29
r 1.678357 9 7 tcp 1000 ------- 1 1.0 7.0 8 26
h 1.678357 7 9 ack 40 ------- 1 7.0 1.0 8 36
+ 1.68567 8 9 ack 40 ------- 2 8.0 2.0 5 34
- 1.689588 3 9 tcp 1000 ------- 1 1.0 7.0 12 30
r 1.694389 9 7 tcp 1000 ------- 1 1.0 7.0 9 27
h 1.694389 7 9 ack 40 ------- 1 7.0 1.0 9 37
r 1.69583 9 3 ack 40 ------- 2 8.0 2.0 3 32
+ 1.69583 3 0 ack 40 ------- 2 8.0 2.0 3 32
- 1.69583 3 0 ack 40 ------- 2 8.0 2.0 3 32
+ 1.702326 8 9 ack 40 ------- 2 8.0 2.0 6 35
- 1.705877 3 9 tcp 1000 ------- 1 1.0 7.0 13 31
r 1.711865 9 7 tcp 1000 ------- 1 1.0 7.0 10 28
h 1.711865 7 9 ack 40 ------- 1 7.0 1.0 10 38
r 1.71615 3 0 ack 40 ------- 2 8.0 2.0 3 32
+ 1.71615 0 2 ack 40 ------- 2 8.0 2.0 3 32
- 1.71615 0 2 ack 40 ------- 2 8.0 2.0 3 32
+ 1.718357 7 9 ack 40 ------- 1 7.0 1.0 8 36
- 1.718357 7 9 ack 40 ------- 1 7.0 1.0 8 36
r 1.72631 0 2 ack 40 ------- 2 8.0 2.0 3 32
+ 1.72631 2 0 tcp 1040 ------- 2 2.0 8.0 7 39
- 1.72631 2 0 tcp 1040 ------- 2 2.0 8.0 7 39
+ 1.72631 2 0 tcp 1040 ------- 2 2.0 8.0 8 40
- 1.727612 8 9 ack 40 ------- 2 8.0 2.0 5 34
- 1.7288 8 9 ack 40 ------- 2 8.0 2.0 6 35
r 1.729405 9 7 tcp 1000 ------- 1 1.0 7.0 11 29
h 1.729405 7 9 ack 40 ------- 1 7.0 1.0 11 41
- 1.73047 2 0 tcp 1040 ------- 2 2.0 8.0 8 40
+ 1.734389 7 9 ack 40 ------- 1 7.0 1.0 9 37
- 1.734389 7 9 ack 40 ------- 1 7.0 1.0 9 37
r 1.74047 2 0 tcp 1040 ------- 2 2.0 8.0 7 39
+ 1.74047 0 3 tcp 1040 ------- 2 2.0 8.0 7 39
- 1.74047 0 3 tcp 1040 ------- 2 2.0 8.0 7 39
r 1.74463 2 0 tcp 1040 ------- 2 2.0 8.0 8 40
+ 1.74463 0 3 tcp 1040 ------- 2 2.0 8.0 8 40
r 1.745694 9 7 tcp 1000 ------- 1 1.0 7.0 12 30
h 1.745694 7 9 ack 40 ------- 1 7.0 1.0 12 42
- 1.74879 0 3 tcp 1040 ------- 2 2.0 8.0 8 40
+ 1.751865 7 9 ack 40 ------- 1 7.0 1.0 10 38
- 1.751865 7 9 ack 40 ------- 1 7.0 1.0 10 38
r 1.762983 9 7 tcp 1000 ------- 1 1.0 7.0 13 31
h 1.762983 7 9 ack 40 ------- 1 7.0 1.0 13 43
r 1.764429 9 3 ack 40 ------- 1 7.0 1.0 8 36
+ 1.764429 3 0 ack 40 ------- 1 7.0 1.0 8 36
- 1.764429 3 0 ack 40 ------- 1 7.0 1.0 8 36
r 1.767429 9 3 ack 40 ------- 2 8.0 2.0 4 33
+ 1.767429 3 0 ack 40 ------- 2 8.0 2.0 4 33
- 1.767429 3 0 ack 40 ------- 2 8.0 2.0 4 33
r 1.768616 9 3 ack 40 ------- 2 8.0 2.0 5 34
+ 1.768616 3 0 ack 40 ------- 2 8.0 2.0 5 34
- 1.768616 3 0 ack 40 ------- 2 8.0 2.0 5 34
r 1.76879 0 3 tcp 1040 ------- 2 2.0 8.0 7 39
h 1.76879 3 9 tcp 1040 ------- 2 2.0 8.0 7 39
+ 1.769405 7 9 ack 40 ------- 1 7.0 1.0 11 41
- 1.769405 7 9 ack 40 ------- 1 7.0 1.0 11 41
r 1.769804 9 3 ack 40 ------- 2 8.0 2.0 6 35
+ 1.769804 3 0 ack 40 ------- 2 8.0 2.0 6 35
- 1.769804 3 0 ack 40 ------- 2 8.0 2.0 6 35
r 1.775393 9 3 ack 40 ------- 1 7.0 1.0 9 37
+ 1.775393 3 0 ack 40 ------- 1 7.0 1.0 9 37
- 1.775393 3 0 ack 40 ------- 1 7.0 1.0 9 37
r 1.77711 0 3 tcp 1040 ------- 2 2.0 8.0 8 40
h 1.77711 3 9 tcp 1040 ------- 2 2.0 8.0 8 40
r 1.784749 3 0 ack 40 ------- 1 7.0 1.0 8 36
+ 1.784749 0 1 ack 40 ------- 1 7.0 1.0 8 36
- 1.784749 0 1 ack 40 ------- 1 7.0 1.0 8 36
+ 1.785694 7 9 ack 40 ------- 1 7.0 1.0 12 42
- 1.785694 7 9 ack 40 ------- 1 7.0 1.0 12 42
r 1.787749 3 0 ack 40 ------- 2 8.0 2.0 4 33
+ 1.787749 0 2 ack 40 ------- 2 8.0 2.0 4 33
- 1.787749 0 2 ack 40 ------- 2 8.0 2.0 4 33
r 1.788936 3 0 ack 40 ------- 2 8.0 2.0 5 34
+ 1.788936 0 2 ack 40 ------- 2 8.0 2.0 5 34
- 1.788936 0 2 ack 40 ------- 2 8.0 2.0 5 34
r 1.790124 3 0 ack 40 ------- 2 8.0 2.0 6 35
+ 1.790124 0 2 ack 40 ------- 2 8.0 2.0 6 35
- 1.790124 0 2 ack 40 ------- 2 8.0 2.0 6 35
r 1.792869 9 3 ack 40 ------- 1 7.0 1.0 10 38
+ 1.792869 3 0 ack 40 ------- 1 7.0 1.0 10 38
- 1.792869 3 0 ack 40 ------- 1 7.0 1.0 10 38
r 1.794909 0 1 ack 40 ------- 1 7.0 1.0 8 36
+ 1.794909 1 0 tcp 1000 ------- 1 1.0 7.0 14 44
- 1.794909 1 0 tcp 1000 ------- 1 1.0 7.0 14 44
r 1.795713 3 0 ack 40 ------- 1 7.0 1.0 9 37
+ 1.795713 0 1 ack 40 ------- 1 7.0 1.0 9 37
- 1.795713 0 1 ack 40 ------- 1 7.0 1.0 9 37
r 1.797909 0 2 ack 40 ------- 2 8.0 2.0 4 33
+ 1.797909 2 0 tcp 1040 ------- 2 2.0 8.0 9 45
- 1.797909 2 0 tcp 1040 ------- 2 2.0 8.0 9 45
+ 1.797909 2 0 tcp 1040 ------- 2 2.0 8.0 10 46
r 1.799096 0 2 ack 40 ------- 2 8.0 2.0 5 34
+ 1.799096 2 0 tcp 1040 ------- 2 2.0 8.0 11 47
+ 1.799096 2 0 tcp 1040 ------- 2 2.0 8.0 12 48
r 1.800284 0 2 ack 40 ------- 2 8.0 2.0 6 35
+ 1.800284 2 0 tcp 1040 ------- 2 2.0 8.0 13 49
+ 1.800284 2 0 tcp 1040 ------- 2 2.0 8.0 14 50
- 1.802069 2 0 tcp 1040 ------- 2 2.0 8.0 10 46
+ 1.802983 7 9 ack 40 ------- 1 7.0 1.0 13 43
- 1.802983 7 9 ack 40 ------- 1 7.0 1.0 13 43
r 1.805873 0 1 ack 40 ------- 1 7.0 1.0 9 37
+ 1.805873 1 0 tcp 1000 ------- 1 1.0 7.0 15 51
- 1.805873 1 0 tcp 1000 ------- 1 1.0 7.0 15 51
- 1.806229 2 0 tcp 1040 ------- 2 2.0 8.0 11 47
+ 1.80879 3 9 tcp 1040 ------- 2 2.0 8.0 7 39
- 1.80879 3 9 tcp 1040 ------- 2 2.0 8.0 7 39
r 1.808909 1 0 tcp 1000 ------- 1 1.0 7.0 14 44
+ 1.808909 0 3 tcp 1000 ------- 1 1.0 7.0 14 44
- 1.808909 0 3 tcp 1000 ------- 1 1.0 7.0 14 44
- 1.810389 2 0 tcp 1040 ------- 2 2.0 8.0 12 48
r 1.810409 9 3 ack 40 ------- 1 7.0 1.0 11 41
+ 1.810409 3 0 ack 40 ------- 1 7.0 1.0 11 41
- 1.810409 3 0 ack 40 ------- 1 7.0 1.0 11 41
r 1.812069 2 0 tcp 1040 ------- 2 2.0 8.0 9 45
+ 1.812069 0 3 tcp 1040 ------- 2 2.0 8.0 9 45
r 1.813189 3 0 ack 40 ------- 1 7.0 1.0 10 38
+ 1.813189 0 1 ack 40 ------- 1 7.0 1.0 10 38
- 1.813189 0 1 ack 40 ------- 1 7.0 1.0 10 38
- 1.814549 2 0 tcp 1040 ------- 2 2.0 8.0 13 49
r 1.816229 2 0 tcp 1040 ------- 2 2.0 8.0 10 46
+ 1.816229 0 3 tcp 1040 ------- 2 2.0 8.0 10 46
- 1.816909 0 3 tcp 1040 ------- 2 2.0 8.0 9 45
+ 1.81711 3 9 tcp 1040 ------- 2 2.0 8.0 8 40
- 1.818709 2 0 tcp 1040 ------- 2 2.0 8.0 14 50
r 1.819873 1 0 tcp 1000 ------- 1 1.0 7.0 15 51
+ 1.819873 0 3 tcp 1000 ------- 1 1.0 7.0 15 51
r 1.820389 2 0 tcp 1040 ------- 2 2.0 8.0 11 47
+ 1.820389 0 3 tcp 1040 ------- 2 2.0 8.0 11 47
r 1.823349 0 1 ack 40 ------- 1 7.0 1.0 10 38
+ 1.823349 1 0 tcp 1000 ------- 1 1.0 7.0 16 52
- 1.823349 1 0 tcp 1000 ------- 1 1.0 7.0 16 52
r 1.824549 2 0 tcp 1040 ------- 2 2.0 8.0 12 48
+ 1.824549 0 3 tcp 1040 ------- 2 2.0 8.0 12 48
- 1.825229 0 3 tcp 1040 ------- 2 2.0 8.0 10 46
- 1.825446 3 9 tcp 1040 ------- 2 2.0 8.0 8 40
r 1.826698 9 3 ack 40 ------- 1 7.0 1.0 12 42
+ 1.826698 3 0 ack 40 ------- 1 7.0 1.0 12 42
- 1.826698 3 0 ack 40 ------- 1 7.0 1.0 12 42
r 1.828709 2 0 tcp 1040 ------- 2 2.0 8.0 13 49
+ 1.828709 0 3 tcp 1040 ------- 2 2.0 8.0 13 49
r 1.830729 3 0 ack 40 ------- 1 7.0 1.0 11 41
+ 1.830729 0 1 ack 40 ------- 1 7.0 1.0 11 41
- 1.830729 0 1 ack 40 ------- 1 7.0 1.0 11 41
r 1.832869 2 0 tcp 1040 ------- 2 2.0 8.0 14 50
+ 1.832869 0 3 tcp 1040 ------- 2 2.0 8.0 14 50
- 1.833549 0 3 tcp 1000 ------- 1 1.0 7.0 15 51
r 1.836909 0 3 tcp 1000 ------- 1 1.0 7.0 14 44
h 1.836909 3 9 tcp 1000 ------- 1 1.0 7.0 14 44
r 1.837349 1 0 tcp 1000 ------- 1 1.0 7.0 16 52
+ 1.837349 0 3 tcp 1000 ------- 1 1.0 7.0 16 52
r 1.840889 0 1 ack 40 ------- 1 7.0 1.0 11 41
+ 1.840889 1 0 tcp 1000 ------- 1 1.0 7.0 17 53
- 1.840889 1 0 tcp 1000 ------- 1 1.0 7.0 17 53
- 1.841549 0 3 tcp 1040 ------- 2 2.0 8.0 11 47
r 1.843987 9 3 ack 40 ------- 1 7.0 1.0 13 43
+ 1.843987 3 0 ack 40 ------- 1 7.0 1.0 13 43
- 1.843987 3 0 ack 40 ------- 1 7.0 1.0 13 43
r 1.845229 0 3 tcp 1040 ------- 2 2.0 8.0 9 45
h 1.845229 3 9 tcp 1040 ------- 2 2.0 8.0 9 45
r 1.847018 3 0 ack 40 ------- 1 7.0 1.0 12 42
+ 1.847018 0 1 ack 40 ------- 1 7.0 1.0 12 42
- 1.847018 0 1 ack 40 ------- 1 7.0 1.0 12 42
- 1.849869 0 3 tcp 1040 ------- 2 2.0 8.0 12 48
r 1.853549 0 3 tcp 1040 ------- 2 2.0 8.0 10 46
h 1.853549 3 9 tcp 1040 ------- 2 2.0 8.0 10 46
r 1.854889 1 0 tcp 1000 ------- 1 1.0 7.0 17 53
+ 1.854889 0 3 tcp 1000 ------- 1 1.0 7.0 17 53
r 1.857178 0 1 ack 40 ------- 1 7.0 1.0 12 42
+ 1.857178 1 0 tcp 1000 ------- 1 1.0 7.0 18 54
- 1.857178 1 0 tcp 1000 ------- 1 1.0 7.0 18 54
- 1.858189 0 3 tcp 1040 ------- 2 2.0 8.0 13 49
r 1.861549 0 3 tcp 1000 ------- 1 1.0 7.0 15 51
h 1.861549 3 9 tcp 1000 ------- 1 1.0 7.0 15 51
r 1.864307 3 0 ack 40 ------- 1 7.0 1.0 13 43
+ 1.864307 0 1 ack 40 ------- 1 7.0 1.0 13 43
- 1.864307 0 1 ack 40 ------- 1 7.0 1.0 13 43
r 1.865263 9 8 tcp 1040 ------- 2 2.0 8.0 7 39
h 1.865263 8 9 ack 40 ------- 2 8.0 2.0 7 55
- 1.866509 0 3 tcp 1040 ------- 2 2.0 8.0 14 50
r 1.869869 0 3 tcp 1040 ------- 2 2.0 8.0 11 47
h 1.869869 3 9 tcp 1040 ------- 2 2.0 8.0 11 47
r 1.871178 1 0 tcp 1000 ------- 1 1.0 7.0 18 54
+ 1.871178 0 3 tcp 1000 ------- 1 1.0 7.0 18 54
r 1.874467 0 1 ack 40 ------- 1 7.0 1.0 13 43
+ 1.874467 1 0 tcp 1000 ------- 1 1.0 7.0 19 56
- 1.874467 1 0 tcp 1000 ------- 1 1.0 7.0 19 56
- 1.874829 0 3 tcp 1000 ------- 1 1.0 7.0 16 52
+ 1.876909 3 9 tcp 1000 ------- 1 1.0 7.0 14 44
- 1.876909 3 9 tcp 1000 ------- 1 1.0 7.0 14 44
r 1.878189 0 3 tcp 1040 ------- 2 2.0 8.0 12 48
h 1.878189 3 9 tcp 1040 ------- 2 2.0 8.0 12 48
r 1.881919 9 8 tcp 1040 ------- 2 2.0 8.0 8 40
h 1.881919 8 9 ack 40 ------- 2 8.0 2.0 8 57
- 1.882829 0 3 tcp 1000 ------- 1 1.0 7.0 17 53
+ 1.885229 3 9 tcp 1040 ------- 2 2.0 8.0 9 45
r 1.886509 0 3 tcp 1040 ------- 2 2.0 8.0 13 49
h 1.886509 3 9 tcp 1040 ------- 2 2.0 8.0 13 49
r 1.888467 1 0 tcp 1000 ------- 1 1.0 7.0 19 56
+ 1.888467 0 3 tcp 1000 ------- 1 1.0 7.0 19 56
- 1.890829 0 3 tcp 1000 ------- 1 1.0 7.0 18 54
- 1.89294 3 9 tcp 1040 ------- 2 2.0 8.0 9 45
+ 1.893549 3 9 tcp 1040 ------- 2 2.0 8.0 10 46
r 1.894829 0 3 tcp 1040 ------- 2 2.0 8.0 14 50
h 1.894829 3 9 tcp 1040 ------- 2 2.0 8.0 14 50
- 1.898829 0 3 tcp 1000 ------- 1 1.0 7.0 19 56
+ 1.901549 3 9 tcp 1000 ------- 1 1.0 7.0 15 51
r 1.902829 0 3 tcp 1000 ------- 1 1.0 7.0 16 52
h 1.902829 3 9 tcp 1000 ------- 1 1.0 7.0 16 52
+ 1.905263 8 9 ack 40 ------- 2 8.0 2.0 7 55
- 1.905263 8 9 ack 40 ------- 2 8.0 2.0 7 55
- 1.909596 3 9 tcp 1040 ------- 2 2.0 8.0 10 46
+ 1.909869 3 9 tcp 1040 ------- 2 2.0 8.0 11 47
r 1.910829 0 3 tcp 1000 ------- 1 1.0 7.0 17 53
h 1.910829 3 9 tcp 1000 ------- 1 1.0 7.0 17 53
+ 1.918189 3 9 tcp 1040 ------- 2 2.0 8.0 12 48
r 1.918829 0 3 tcp 1000 ------- 1 1.0 7.0 18 54
h 1.918829 3 9 tcp 1000 ------- 1 1.0 7.0 18 54
+ 1.921919 8 9 ack 40 ------- 2 8.0 2.0 8 57
+ 1.926509 3 9 tcp 1040 ------- 2 2.0 8.0 13 49
- 1.92651 3 9 tcp 1000 ------- 1 1.0 7.0 15 51
r 1.926829 0 3 tcp 1000 ------- 1 1.0 7.0 19 56
h 1.926829 3 9 tcp 1000 ------- 1 1.0 7.0 19 56
r 1.932756 9 7 tcp 1000 ------- 1 1.0 7.0 14 44
h 1.932756 7 9 ack 40 ------- 1 7.0 1.0 14 58
+ 1.934829 3 9 tcp 1040 ------- 2 2.0 8.0 14 50
- 1.9428 3 9 tcp 1040 ------- 2 2.0 8.0 11 47
+ 1.942829 3 9 tcp 1000 ------- 1 1.0 7.0 16 52
r 1.949413 9 8 tcp 1040 ------- 2 2.0 8.0 9 45
h 1.949413 8 9 ack 40 ------- 2 8.0 2.0 9 59
+ 1.950829 3 9 tcp 1000 ------- 1 1.0 7.0 17 53
+ 1.958829 3 9 tcp 1000 ------- 1 1.0 7.0 18 54
- 1.962964 3 9 tcp 1040 ------- 2 2.0 8.0 12 48
r 1.966327 9 8 tcp 1040 ------- 2 2.0 8.0 10 46
h 1.966327 8 9 ack 40 ------- 2 8.0 2.0 10 60
+ 1.966829 3 9 tcp 1000 ------- 1 1.0 7.0 19 56
+ 1.972756 7 9 ack 40 ------- 1 7.0 1.0 14 58
- 1.972756 7 9 ack 40 ------- 1 7.0 1.0 14 58
- 1.980878 3 9 tcp 1040 ------- 2 2.0 8.0 13 49
r 1.982616 9 7 tcp 1000 ------- 1 1.0 7.0 15 51
h 1.982616 7 9 ack 40 ------- 1 7.0 1.0 15 61
+ 1.989413 8 9 ack 40 ------- 2 8.0 2.0 9 59
- 1.997792 3 9 tcp 1040 ------- 2 2.0 8.0 14 50
r 2.00278 9 8 tcp 1040 ------- 2 2.0 8.0 11 47
h 2.00278 8 9 ack 40 ------- 2 8.0 2.0 11 62
+ 2.006327 8 9 ack 40 ------- 2 8.0 2.0 10 60
- 2.015707 3 9 tcp 1000 ------- 1 1.0 7.0 16 52
r 2.020695 9 8 tcp 1040 ------- 2 2.0 8.0 12 48
h 2.020695 8 9 ack 40 ------- 2 8.0 2.0 12 63
+ 2.022616 7 9 ack 40 ------- 1 7.0 1.0 15 61
- 2.032996 3 9 tcp 1000 ------- 1 1.0 7.0 17 53
r 2.037609 9 8 tcp 1040 ------- 2 2.0 8.0 13 49
h 2.037609 8 9 ack 40 ------- 2 8.0 2.0 13 64
+ 2.04278 8 9 ack 40 ------- 2 8.0 2.0 11 62
- 2.049285 3 9 tcp 1000 ------- 1 1.0 7.0 18 54
r 2.055523 9 8 tcp 1040 ------- 2 2.0 8.0 14 50
h 2.055523 8 9 ack 40 ------- 2 8.0 2.0 14 65
+ 2.060695 8 9 ack 40 ------- 2 8.0 2.0 12 63
- 2.065574 3 9 tcp 1000 ------- 1 1.0 7.0 19 56
r 2.072812 9 7 tcp 1000 ------- 1 1.0 7.0 16 52
h 2.072812 7 9 ack 40 ------- 1 7.0 1.0 16 66
+ 2.077609 8 9 ack 40 ------- 2 8.0 2.0 13 64
- 2.084055 7 9 ack 40 ------- 1 7.0 1.0 15 61
r 2.089102 9 7 tcp 1000 ------- 1 1.0 7.0 17 53
h 2.089102 7 9 ack 40 ------- 1 7.0 1.0 17 67
+ 2.095523 8 9 ack 40 ------- 2 8.0 2.0 14 65
r 2.105391 9 7 tcp 1000 ------- 1 1.0 7.0 18 54
h 2.105391 7 9 ack 40 ------- 1 7.0 1.0 18 68
- 2.111437 8 9 ack 40 ------- 2 8.0 2.0 8 57
- 2.112625 8 9 ack 40 ------- 2 8.0 2.0 9 59
+ 2.112812 7 9 ack 40 ------- 1 7.0 1.0 16 66
- 2.112812 7 9 ack 40 ------- 1 7.0 1.0 16 66
- 2.113812 8 9 ack 40 ------- 2 8.0 2.0 10 60
- 2.115258 8 9 ack 40 ------- 2 8.0 2.0 11 62
- 2.117703 8 9 ack 40 ------- 2 8.0 2.0 12 63
- 2.118891 8 9 ack 40 ------- 2 8.0 2.0 13 64
- 2.120336 8 9 ack 40 ------- 2 8.0 2.0 14 65
r 2.12268 9 7 tcp 1000 ------- 1 1.0 7.0 19 56
h 2.12268 7 9 ack 40 ------- 1 7.0 1.0 19 69
r 2.123872 9 3 ack 40 ------- 1 7.0 1.0 14 58
+ 2.123872 3 0 ack 40 ------- 1 7.0 1.0 14 58
- 2.123872 3 0 ack 40 ------- 1 7.0 1.0 14 58
r 2.125059 9 3 ack 40 ------- 1 7.0 1.0 15 61
+ 2.125059 3 0 ack 40 ------- 1 7.0 1.0 15 61
- 2.125059 3 0 ack 40 ------- 1 7.0 1.0 15 61
+ 2.129102 7 9 ack 40 ------- 1 7.0 1.0 17 67
- 2.129778 7 9 ack 40 ------- 1 7.0 1.0 17 67
r 2.144192 3 0 ack 40 ------- 1 7.0 1.0 14 58
+ 2.144192 0 1 ack 40 ------- 1 7.0 1.0 14 58
- 2.144192 0 1 ack 40 ------- 1 7.0 1.0 14 58
r 2.145379 3 0 ack 40 ------- 1 7.0 1.0 15 61
+ 2.145379 0 1 ack 40 ------- 1 7.0 1.0 15 61
- 2.145379 0 1 ack 40 ------- 1 7.0 1.0 15 61
+ 2.145391 7 9 ack 40 ------- 1 7.0 1.0 18 68
- 2.145391 7 9 ack 40 ------- 1 7.0 1.0 18 68
r 2.151254 9 3 ack 40 ------- 2 8.0 2.0 7 55
+ 2.151254 3 0 ack 40 ------- 2 8.0 2.0 7 55
- 2.151254 3 0 ack 40 ------- 2 8.0 2.0 7 55
r 2.152441 9 3 ack 40 ------- 2 8.0 2.0 8 57
+ 2.152441 3 0 ack 40 ------- 2 8.0 2.0 8 57
- 2.152441 3 0 ack 40 ------- 2 8.0 2.0 8 57
r 2.153629 9 3 ack 40 ------- 2 8.0 2.0 9 59
+ 2.153629 3 0 ack 40 ------- 2 8.0 2.0 9 59
- 2.153629 3 0 ack 40 ------- 2 8.0 2.0 9 59
r 2.154352 0 1 ack 40 ------- 1 7.0 1.0 14 58
+ 2.154352 1 0 tcp 1000 ------- 1 1.0 7.0 20 70
- 2.154352 1 0 tcp 1000 ------- 1 1.0 7.0 20 70
+ 2.154352 1 0 tcp 1000 ------- 1 1.0 7.0 21 71
r 2.155074 9 3 ack 40 ------- 2 8.0 2.0 10 60
+ 2.155074 3 0 ack 40 ------- 2 8.0 2.0 10 60
- 2.155074 3 0 ack 40 ------- 2 8.0 2.0 10 60
r 2.155539 0 1 ack 40 ------- 1 7.0 1.0 15 61
+ 2.155539 1 0 tcp 1000 ------- 1 1.0 7.0 22 72
+ 2.155539 1 0 tcp 1000 ------- 1 1.0 7.0 23 73
r 2.15752 9 3 ack 40 ------- 2 8.0 2.0 11 62
+ 2.15752 3 0 ack 40 ------- 2 8.0 2.0 11 62
- 2.15752 3 0 ack 40 ------- 2 8.0 2.0 11 62
- 2.158352 1 0 tcp 1000 ------- 1 1.0 7.0 21 71
r 2.158707 9 3 ack 40 ------- 2 8.0 2.0 12 63
+ 2.158707 3 0 ack 40 ------- 2 8.0 2.0 12 63
- 2.158707 3 0 ack 40 ------- 2 8.0 2.0 12 63
r 2.160153 9 3 ack 40 ------- 2 8.0 2.0 13 64
+ 2.160153 3 0 ack 40 ------- 2 8.0 2.0 13 64
- 2.160153 3 0 ack 40 ------- 2 8.0 2.0 13 64
- 2.162352 1 0 tcp 1000 ------- 1 1.0 7.0 22 72
r 2.162598 9 3 ack 40 ------- 2 8.0 2.0 14 65
+ 2.162598 3 0 ack 40 ------- 2 8.0 2.0 14 65
- 2.162598 3 0 ack 40 ------- 2 8.0 2.0 14 65
+ 2.16268 7 9 ack 40 ------- 1 7.0 1.0 19 69
- 2.16268 7 9 ack 40 ------- 1 7.0 1.0 19 69
- 2.166352 1 0 tcp 1000 ------- 1 1.0 7.0 23 73
r 2.168352 1 0 tcp 1000 ------- 1 1.0 7.0 20 70