V -t * -v 1.0a5 -a 0
A -t * -n 1 -p 0 -o 0x7fffffff -c 30 -a 1
A -t * -h 1 -m 1073741823 -s 0
c -t * -i 1 -n Blue
c -t * -i 2 -n Red
n -t * -a 8 -s 8 -S UP -v hexagon -c Red -i Red
n -t * -a 4 -s 4 -S UP -v circle -c black -i black
n -t * -a 0 -s 0 -S UP -v circle -c black -i black
n -t * -a 5 -s 5 -S UP -v circle -c black -i black
n -t * -a 1 -s 1 -S UP -v circle -c black -i black
n -t * -a 6 -s 6 -S UP -v circle -c black -i black
n -t * -a 2 -s 2 -S UP -v circle -c black -i black
n -t * -a 7 -s 7 -S UP -v box -c Blue -i Blue
n -t * -a 3 -s 3 -S UP -v circle -c black -i black
l -t * -s 1 -d 0 -S UP -r 2000000 -D 0.01 -c black -o right-down
l -t * -s 2 -d 0 -S UP -r 2000000 -D 0.01 -c black -o right-up
l -t * -s 0 -d 3 -S UP -r 1000000 -D 0.02 -c black -o right
X -t * -n 9 -r 512Kb -D 40ms -o left
L -t * -s 9 -d 3 -o up
L -t * -s 9 -d 4 -o down
L -t * -s 9 -d 5 -o up
L -t * -s 9 -d 6 -o down
L -t * -s 9 -d 7 -o up
L -t * -s 9 -d 8 -o down
+ -t 0.5 -s 1 -d 0 -p tcp -e 1000 -c 1 -i 0 -a 1 -x {1.0 7.0 0 ------- null}
- -t 0.5 -s 1 -d 0 -p tcp -e 1000 -c 1 -i 0 -a 1 -x {1.0 7.0 0 ------- null}
h -t 0.5 -s 1 -d 0 -p tcp -e 1000 -c 1 -i 0 -a 1 -x {1.0 7.0 -1 ------- null}
r -t 0.514 -s 1 -d 0 -p tcp -e 1000 -c 1 -i 0 -a 1 -x {1.0 7.0 0 ------- null}
+ -t 0.514 -s 0 -d 3 -p tcp -e 1000 -c 1 -i 0 -a 1 -x {1.0 7.0 0 ------- null}
- -t 0.514 -s 0 -d 3 -p tcp -e 1000 -c 1 -i 0 -a 1 -x {1.0 7.0 0 ------- null}
h -t 0.514 -s 0 -d 3 -p tcp -e 1000 -c 1 -i 0 -a 1 -x {1.0 7.0 -1 ------- null}
r -t 0.542 -s 0 -d 3 -p tcp -e 1000 -c 1 -i 0 -a 1 -x {1.0 7.0 0 ------- null}
h -t 0.542 -s 3 -d 9 -p tcp -e 1000 -c 1 -i 0 -a 1 -x {1.0 7.0 0 ------- null}
+ -t 0.582 -s 3 -d 9 -p tcp -e 1000 -c 1 -i 0 -a 1 -x {1.0 7.0 0 ------- null}
- -t 0.582 -s 3 -d 9 -p tcp -e 1000 -c 1 -i 0 -a 1 -x {1.0 7.0 0 ------- null}
h -t 0.582 -s 3 -d 9 -p tcp -e 1000 -c 1 -i 0 -a 1 -x {1.0 7.0 -1 ------- null}
r -t 0.63784775 -s 9 -d 7 -p tcp -e 1000 -c 1 -i 0 -a 1 -x {1.0 7.0 0 ------- null}
h -t 0.63784775 -s 7 -d 9 -p ack -e 40 -c 1 -i 1 -a 1 -x {7.0 1.0 0 ------- null}
+ -t 0.67784775 -s 7 -d 9 -p ack -e 40 -c 1 -i 1 -a 1 -x {7.0 1.0 0 ------- null}
- -t 0.67784775 -s 7 -d 9 -p ack -e 40 -c 1 -i 1 -a 1 -x {7.0 1.0 0 ------- null}
h -t 0.67784775 -s 7 -d 9 -p ack -e 40 -c 1 -i 1 -a 1 -x {7.0 1.0 -1 ------- null}
r -t 0.71885175 -s 9 -d 3 -p ack -e 40 -c 1 -i 1 -a 1 -x {7.0 1.0 0 ------- null}
+ -t 0.71885175 -s 3 -d 0 -p ack -e 40 -c 1 -i 1 -a 1 -x {7.0 1.0 0 ------- null}
- -t 0.71885175 -s 3 -d 0 -p ack -e 40 -c 1 -i 1 -a 1 -x {7.0 1.0 0 ------- null}
h -t 0.71885175 -s 3 -d 0 -p ack -e 40 -c 1 -i 1 -a 1 -x {7.0 1.0 -1 ------- null}
r -t 0.73917175 -s 3 -d 0 -p ack -e 40 -c 1 -i 1 -a 1 -x {7.0 1.0 0 ------- null}
+ -t 0.73917175 -s 0 -d 1 -p ack -e 40 -c 1 -i 1 -a 1 -x {7.0 1.0 0 ------- null}
- -t 0.73917175 -s 0 -d 1 -p ack -e 40 -c 1 -i 1 -a 1 -x {7.0 1.0 0 ------- null}
h -t 0.73917175 -s 0 -d 1 -p ack -e 40 -c 1 -i 1 -a 1 -x {7.0 1.0 -1 ------- null}
r -t 0.74933175 -s 0 -d 1 -p ack -e 40 -c 1 -i 1 -a 1 -x {7.0 1.0 0 ------- null}
+ -t 0.74933175 -s 1 -d 0 -p tcp -e 1000 -c 1 -i 2 -a 1 -x {1.0 7.0 1 ------- null}
- -t 0.74933175 -s 1 -d 0 -p tcp -e 1000 -c 1 -i 2 -a 1 -x {1.0 7.0 1 ------- null}
h -t 0.74933175 -s 1 -d 0 -p tcp -e 1000 -c 1 -i 2 -a 1 -x {1.0 7.0 -1 ------- null}
r -t 0.76333175 -s 1 -d 0 -p tcp -e 1000 -c 1 -i 2 -a 1 -x {1.0 7.0 1 ------- null}
+ -t 0.76333175 -s 0 -d 3 -p tcp -e 1000 -c 1 -i 2 -a 1 -x {1.0 7.0 1 ------- null}
- -t 0.76333175 -s 0 -d 3 -p tcp -e 1000 -c 1 -i 2 -a 1 -x {1.0 7.0 1 ------- null}
h -t 0.76333175 -s 0 -d 3 -p tcp -e 1000 -c 1 -i 2 -a 1 -x {1.0 7.0 -1 ------- null}
r -t 0.79133175 -s 0 -d 3 -p tcp -e 1000 -c 1 -i 2 -a 1 -x {1.0 7.0 1 ------- null}
h -t 0.79133175 -s 3 -d 9 -p tcp -e 1000 -c 1 -i 2 -a 1 -x {1.0 7.0 1 ------- null}
+ -t 0.83133175 -s 3 -d 9 -p tcp -e 1000 -c 1 -i 2 -a 1 -x {1.0 7.0 1 ------- null}
- -t 0.83133175 -s 3 -d 9 -p tcp -e 1000 -c 1 -i 2 -a 1 -x {1.0 7.0 1 ------- null}
h -t 0.83133175 -s 3 -d 9 -p tcp -e 1000 -c 1 -i 2 -a 1 -x {1.0 7.0 -1 ------- null}
r -t 0.8871795 -s 9 -d 7 -p tcp -e 1000 -c 1 -i 2 -a 1 -x {1.0 7.0 1 ------- null}
h -t 0.8871795 -s 7 -d 9 -p ack -e 40 -c 1 -i 3 -a 1 -x {7.0 1.0 1 ------- null}
+ -t 0.9271795 -s 7 -d 9 -p ack -e 40 -c 1 -i 3 -a 1 -x {7.0 1.0 1 ------- null}
- -t 0.9271795 -s 7 -d 9 -p ack -e 40 -c 1 -i 3 -a 1 -x {7.0 1.0 1 ------- null}
h -t 0.9271795 -s 7 -d 9 -p ack -e 40 -c 1 -i 3 -a 1 -x {7.0 1.0 -1 ------- null}
r -t 0.9681835 -s 9 -d 3 -p ack -e 40 -c 1 -i 3 -a 1 -x {7.0 1.0 1 ------- null}
+ -t 0.9681835 -s 3 -d 0 -p ack -e 40 -c 1 -i 3 -a 1 -x {7.0 1.0 1 ------- null}
- -t 0.9681835 -s 3 -d 0 -p ack -e 40 -c 1 -i 3 -a 1 -x {7.0 1.0 1 ------- null}
h -t 0.9681835 -s 3 -d 0 -p ack -e 40 -c 1 -i 3 -a 1 -x {7.0 1.0 -1 ------- null}
r -t 0.9885035 -s 3 -d 0 -p ack -e 40 -c 1 -i 3 -a 1 -x {7.0 1.0 1 ------- null}
+ -t 0.9885035 -s 0 -d 1 -p ack -e 40 -c 1 -i 3 -a 1 -x {7.0 1.0 1 ------- null}
- -t 0.9885035 -s 0 -d 1 -p ack -e 40 -c 1 -i 3 -a 1 -x {7.0 1.0 1 ------- null}
h -t 0.9885035 -s 0 -d 1 -p ack -e 40 -c 1 -i 3 -a 1 -x {7.0 1.0 -1 ------- null}
r -t 0.9986635 -s 0 -d 1 -p ack -e 40 -c 1 -i 3 -a 1 -x {7.0 1.0 1 ------- null}
+ -t 0.9986635 -s 1 -d 0 -p tcp -e 1000 -c 1 -i 4 -a 1 -x {1.0 7.0 2 ------- null}
- -t 0.9986635 -s 1 -d 0 -p tcp -e 1000 -c 1 -i 4 -a 1 -x {1.0 7.0 2 ------- null}
h -t 0.9986635 -s 1 -d 0 -p tcp -e 1000 -c 1 -i 4 -a 1 -x {1.0 7.0 -1 ------- null}
+ -t 0.9986635 -s 1 -d 0 -p tcp -e 1000 -c 1 -i 5 -a 1 -x {1.0 7.0 3 ------- null}
+ -t 0.9986635 -s 1 -d 0 -p tcp -e 1000 -c 1 -i 6 -a 1 -x {1.0 7.0 4 ------- null}
+ -t 1 -s 2 -d 0 -p tcp -e 40 -c 2 -i 7 -a 2 -x {2.0 8.0 0 ------- null}
- -t 1 -s 2 -d 0 -p tcp -e 40 -c 2 -i 7 -a 2 -x {2.0 8.0 0 ------- null}
h -t 1 -s 2 -d 0 -p tcp -e 40 -c 2 -i 7 -a 2 -x {2.0 8.0 -1 ------- null}
- -t 1.0026635 -s 1 -d 0 -p tcp -e 1000 -c 1 -i 5 -a 1 -x {1.0 7.0 3 ------- null}
h -t 1.0026635 -s 1 -d 0 -p tcp -e 1000 -c 1 -i 5 -a 1 -x {1.0 7.0 -1 ------- null}
- -t 1.0066635 -s 1 -d 0 -p tcp -e 1000 -c 1 -i 6 -a 1 -x {1.0 7.0 4 ------- null}
h -t 1.0066635 -s 1 -d 0 -p tcp -e 1000 -c 1 -i 6 -a 1 -x {1.0 7.0 -1 ------- null}
r -t 1.01016 -s 2 -d 0 -p tcp -e 40 -c 2 -i 7 -a 2 -x {2.0 8.0 0 ------- null}
+ -t 1.01016 -s 0 -d 3 -p tcp -e 40 -c 2 -i 7 -a 2 -x {2.0 8.0 0 ------- null}
- -t 1.01016 -s 0 -d 3 -p tcp -e 40 -c 2 -i 7 -a 2 -x {2.0 8.0 0 ------- null}
h -t 1.01016 -s 0 -d 3 -p tcp -e 40 -c 2 -i 7 -a 2 -x {2.0 8.0 -1 ------- null}
r -t 1.0126635 -s 1 -d 0 -p tcp -e 1000 -c 1 -i 4 -a 1 -x {1.0 7.0 2 ------- null}
+ -t 1.0126635 -s 0 -d 3 -p tcp -e 1000 -c 1 -i 4 -a 1 -x {1.0 7.0 2 ------- null}
- -t 1.0126635 -s 0 -d 3 -p tcp -e 1000 -c 1 -i 4 -a 1 -x {1.0 7.0 2 ------- null}
h -t 1.0126635 -s 0 -d 3 -p tcp -e 1000 -c 1 -i 4 -a 1 -x {1.0 7.0 -1 ------- null}
r -t 1.0166635 -s 1 -d 0 -p tcp -e 1000 -c 1 -i 5 -a 1 -x {1.0 7.0 3 ------- null}
+ -t 1.0166635 -s 0 -d 3 -p tcp -e 1000 -c 1 -i 5 -a 1 -x {1.0 7.0 3 ------- null}
r -t 1.0206635 -s 1 -d 0 -p tcp -e 1000 -c 1 -i 6 -a 1 -x {1.0 7.0 4 ------- null}
+ -t 1.0206635 -s 0 -d 3 -p tcp -e 1000 -c 1 -i 6 -a 1 -x {1.0 7.0 4 ------- null}
- -t 1.0206635 -s 0 -d 3 -p tcp -e 1000 -c 1 -i 5 -a 1 -x {1.0 7.0 3 ------- null}
h -t 1.0206635 -s 0 -d 3 -p tcp -e 1000 -c 1 -i 5 -a 1 -x {1.0 7.0 -1 ------- null}
- -t 1.0286635 -s 0 -d 3 -p tcp -e 1000 -c 1 -i 6 -a 1 -x {1.0 7.0 4 ------- null}
h -t 1.0286635 -s 0 -d 3 -p tcp -e 1000 -c 1 -i 6 -a 1 -x {1.0 7.0 -1 ------- null}
r -t 1.03048 -s 0 -d 3 -p tcp -e 40 -c 2 -i 7 -a 2 -x {2.0 8.0 0 ------- null}
h -t 1.03048 -s 3 -d 9 -p tcp -e 40 -c 2 -i 7 -a 2 -x {2.0 8.0 0 ------- null}
r -t 1.0406635 -s 0 -d 3 -p tcp -e 1000 -c 1 -i 4 -a 1 -x {1.0 7.0 2 ------- null}
h -t 1.0406635 -s 3 -d 9 -p tcp -e 1000 -c 1 -i 4 -a 1 -x {1.0 7.0 2 ------- null}
r -t 1.0486635 -s 0 -d 3 -p tcp -e 1000 -c 1 -i 5 -a 1 -x {1.0 7.0 3 ------- null}
h -t 1.0486635 -s 3 -d 9 -p tcp -e 1000 -c 1 -i 5 -a 1 -x {1.0 7.0 3 ------- null}
r -t 1.0566635 -s 0 -d 3 -p tcp -e 1000 -c 1 -i 6 -a 1 -x {1.0 7.0 4 ------- null}
h -t 1.0566635 -s 3 -d 9 -p tcp -e 1000 -c 1 -i 6 -a 1 -x {1.0 7.0 4 ------- null}
+ -t 1.07048 -s 3 -d 9 -p tcp -e 40 -c 2 -i 7 -a 2 -x {2.0 8.0 0 ------- null}
- -t 1.07048 -s 3 -d 9 -p tcp -e 40 -c 2 -i 7 -a 2 -x {2.0 8.0 0 ------- null}
h -t 1.07048 -s 3 -d 9 -p tcp -e 40 -c 2 -i 7 -a 2 -x {2.0 8.0 -1 ------- null}
+ -t 1.0806635 -s 3 -d 9 -p tcp -e 1000 -c 1 -i 4 -a 1 -x {1.0 7.0 2 ------- null}
- -t 1.0806635 -s 3 -d 9 -p tcp -e 1000 -c 1 -i 4 -a 1 -x {1.0 7.0 2 ------- null}
h -t 1.0806635 -s 3 -d 9 -p tcp -e 1000 -c 1 -i 4 -a 1 -x {1.0 7.0 -1 ------- null}
+ -t 1.0886635 -s 3 -d 9 -p tcp -e 1000 -c 1 -i 5 -a 1 -x {1.0 7.0 3 ------- null}
+ -t 1.0966635 -s 3 -d 9 -p tcp -e 1000 -c 1 -i 6 -a 1 -x {1.0 7.0 4 ------- null}
- -t 1.09669475 -s 3 -d 9 -p tcp -e 1000 -c 1 -i 5 -a 1 -x {1.0 7.0 3 ------- null}
h -t 1.09669475 -s 3 -d 9 -p tcp -e 1000 -c 1 -i 5 -a 1 -x {1.0 7.0 -1 ------- null}
r -t 1.111484 -s 9 -d 8 -p tcp -e 40 -c 2 -i 7 -a 2 -x {2.0 8.0 0 ------- null}
h -t 1.111484 -s 8 -d 9 -p ack -e 40 -c 2 -i 8 -a 2 -x {8.0 2.0 0 ------- null}
- -t 1.112726 -s 3 -d 9 -p tcp -e 1000 -c 1 -i 6 -a 1 -x {1.0 7.0 4 ------- null}
h -t 1.112726 -s 3 -d 9 -p tcp -e 1000 -c 1 -i 6 -a 1 -x {1.0 7.0 -1 ------- null}
r -t 1.13651125 -s 9 -d 7 -p tcp -e 1000 -c 1 -i 4 -a 1 -x {1.0 7.0 2 ------- null}
h -t 1.13651125 -s 7 -d 9 -p ack -e 40 -c 1 -i 9 -a 1 -x {7.0 1.0 2 ------- null}
+ -t 1.151484 -s 8 -d 9 -p ack -e 40 -c 2 -i 8 -a 2 -x {8.0 2.0 0 ------- null}
- -t 1.151484 -s 8 -d 9 -p ack -e 40 -c 2 -i 8 -a 2 -x {8.0 2.0 0 ------- null}
h -t 1.151484 -s 8 -d 9 -p ack -e 40 -c 2 -i 8 -a 2 -x {8.0 2.0 -1 ------- null}
r -t 1.1525425 -s 9 -d 7 -p tcp -e 1000 -c 1 -i 5 -a 1 -x {1.0 7.0 3 ------- null}
h -t 1.1525425 -s 7 -d 9 -p ack -e 40 -c 1 -i 10 -a 1 -x {7.0 1.0 3 ------- null}
r -t 1.16857375 -s 9 -d 7 -p tcp -e 1000 -c 1 -i 6 -a 1 -x {1.0 7.0 4 ------- null}
h -t 1.16857375 -s 7 -d 9 -p ack -e 40 -c 1 -i 11 -a 1 -x {7.0 1.0 4 ------- null}
+ -t 1.17651125 -s 7 -d 9 -p ack -e 40 -c 1 -i 9 -a 1 -x {7.0 1.0 2 ------- null}
- -t 1.17651125 -s 7 -d 9 -p ack -e 40 -c 1 -i 9 -a 1 -x {7.0 1.0 2 ------- null}
h -t 1.17651125 -s 7 -d 9 -p ack -e 40 -c 1 -i 9 -a 1 -x {7.0 1.0 -1 ------- null}
r -t 1.192488 -s 9 -d 3 -p ack -e 40 -c 2 -i 8 -a 2 -x {8.0 2.0 0 ------- null}
+ -t 1.192488 -s 3 -d 0 -p ack -e 40 -c 2 -i 8 -a 2 -x {8.0 2.0 0 ------- null}
- -t 1.192488 -s 3 -d 0 -p ack -e 40 -c 2 -i 8 -a 2 -x {8.0 2.0 0 ------- null}
h -t 1.192488 -s 3 -d 0 -p ack -e 40 -c 2 -i 8 -a 2 -x {8.0 2.0 -1 ------- null}
+ -t 1.1925425 -s 7 -d 9 -p ack -e 40 -c 1 -i 10 -a 1 -x {7.0 1.0 3 ------- null}
- -t 1.1925425 -s 7 -d 9 -p ack -e 40 -c 1 -i 10 -a 1 -x {7.0 1.0 3 ------- null}
h -t 1.1925425 -s 7 -d 9 -p ack -e 40 -c 1 -i 10 -a 1 -x {7.0 1.0 -1 ------- null}
+ -t 1.20857375 -s 7 -d 9 -p ack -e 40 -c 1 -i 11 -a 1 -x {7.0 1.0 4 ------- null}
- -t 1.20857375 -s 7 -d 9 -p ack -e 40 -c 1 -i 11 -a 1 -x {7.0 1.0 4 ------- null}
h -t 1.20857375 -s 7 -d 9 -p ack -e 40 -c 1 -i 11 -a 1 -x {7.0 1.0 -1 ------- null}
r -t 1.212808 -s 3 -d 0 -p ack -e 40 -c 2 -i 8 -a 2 -x {8.0 2.0 0 ------- null}
+ -t 1.212808 -s 0 -d 2 -p ack -e 40 -c 2 -i 8 -a 2 -x {8.0 2.0 0 ------- null}
- -t 1.212808 -s 0 -d 2 -p ack -e 40 -c 2 -i 8 -a 2 -x {8.0 2.0 0 ------- null}
h -t 1.212808 -s 0 -d 2 -p ack -e 40 -c 2 -i 8 -a 2 -x {8.0 2.0 -1 ------- null}
r -t 1.21751525 -s 9 -d 3 -p ack -e 40 -c 1 -i 9 -a 1 -x {7.0 1.0 2 ------- null}
+ -t 1.21751525 -s 3 -d 0 -p ack -e 40 -c 1 -i 9 -a 1 -x {7.0 1.0 2 ------- null}
- -t 1.21751525 -s 3 -d 0 -p ack -e 40 -c 1 -i 9 -a 1 -x {7.0 1.0 2 ------- null}
h -t 1.21751525 -s 3 -d 0 -p ack -e 40 -c 1 -i 9 -a 1 -x {7.0 1.0 -1 ------- null}
r -t 1.222968 -s 0 -d 2 -p ack -e 40 -c 2 -i 8 -a 2 -x {8.0 2.0 0 ------- null}
+ -t 1.222968 -s 2 -d 0 -p tcp -e 1040 -c 2 -i 12 -a 2 -x {2.0 8.0 1 ------- null}
- -t 1.222968 -s 2 -d 0 -p tcp -e 1040 -c 2 -i 12 -a 2 -x {2.0 8.0 1 ------- null}
h -t 1.222968 -s 2 -d 0 -p tcp -e 1040 -c 2 -i 12 -a 2 -x {2.0 8.0 -1 ------- null}
+ -t 1.222968 -s 2 -d 0 -p tcp -e 1040 -c 2 -i 13 -a 2 -x {2.0 8.0 2 ------- null}
- -t 1.227128 -s 2 -d 0 -p tcp -e 1040 -c 2 -i 13 -a 2 -x {2.0 8.0 2 ------- null}
h -t 1.227128 -s 2 -d 0 -p tcp -e 1040 -c 2 -i 13 -a 2 -x {2.0 8.0 -1 ------- null}
r -t 1.2335465 -s 9 -d 3 -p ack -e 40 -c 1 -i 10 -a 1 -x {7.0 1.0 3 ------- null}
+ -t 1.2335465 -s 3 -d 0 -p ack -e 40 -c 1 -i 10 -a 1 -x {7.0 1.0 3 ------- null}
- -t 1.2335465 -s 3 -d 0 -p ack -e 40 -c 1 -i 10 -a 1 -x {7.0 1.0 3 ------- null}
h -t 1.2335465 -s 3 -d 0 -p ack -e 40 -c 1 -i 10 -a 1 -x {7.0 1.0 -1 ------- null}
r -t 1.237128 -s 2 -d 0 -p tcp -e 1040 -c 2 -i 12 -a 2 -x {2.0 8.0 1 ------- null}
+ -t 1.237128 -s 0 -d 3 -p tcp -e 1040 -c 2 -i 12 -a 2 -x {2.0 8.0 1 ------- null}
- -t 1.237128 -s 0 -d 3 -p tcp -e 1040 -c 2 -i 12 -a 2 -x {2.0 8.0 1 ------- null}
h -t 1.237128 -s 0 -d 3 -p tcp -e 1040 -c 2 -i 12 -a 2 -x {2.0 8.0 -1 ------- null}
r -t 1.23783525 -s 3 -d 0 -p ack -e 40 -c 1 -i 9 -a 1 -x {7.0 1.0 2 ------- null}
+ -t 1.23783525 -s 0 -d 1 -p ack -e 40 -c 1 -i 9 -a 1 -x {7.0 1.0 2 ------- null}
- -t 1.23783525 -s 0 -d 1 -p ack -e 40 -c 1 -i 9 -a 1 -x {7.0 1.0 2 ------- null}
h -t 1.23783525 -s 0 -d 1 -p ack -e 40 -c 1 -i 9 -a 1 -x {7.0 1.0 -1 ------- null}
r -t 1.241288 -s 2 -d 0 -p tcp -e 1040 -c 2 -i 13 -a 2 -x {2.0 8.0 2 ------- null}
+ -t 1.241288 -s 0 -d 3 -p tcp -e 1040 -c 2 -i 13 -a 2 -x {2.0 8.0 2 ------- null}
- -t 1.245448 -s 0 -d 3 -p tcp -e 1040 -c 2 -i 13 -a 2 -x {2.0 8.0 2 ------- null}
h -t 1.245448 -s 0 -d 3 -p tcp -e 1040 -c 2 -i 13 -a 2 -x {2.0 8.0 -1 ------- null}
r -t 1.24799525 -s 0 -d 1 -p ack -e 40 -c 1 -i 9 -a 1 -x {7.0 1.0 2 ------- null}
+ -t 1.24799525 -s 1 -d 0 -p tcp -e 1000 -c 1 -i 14 -a 1 -x {1.0 7.0 5 ------- null}
- -t 1.24799525 -s 1 -d 0 -p tcp -e 1000 -c 1 -i 14 -a 1 -x {1.0 7.0 5 ------- null}
h -t 1.24799525 -s 1 -d 0 -p tcp -e 1000 -c 1 -i 14 -a 1 -x {1.0 7.0 -1 ------- null}
r -t 1.24957775 -s 9 -d 3 -p ack -e 40 -c 1 -i 11 -a 1 -x {7.0 1.0 4 ------- null}
+ -t 1.24957775 -s 3 -d 0 -p ack -e 40 -c 1 -i 11 -a 1 -x {7.0 1.0 4 ------- null}
- -t 1.24957775 -s 3 -d 0 -p ack -e 40 -c 1 -i 11 -a 1 -x {7.0 1.0 4 ------- null}
h -t 1.24957775 -s 3 -d 0 -p ack -e 40 -c 1 -i 11 -a 1 -x {7.0 1.0 -1 ------- null}
r -t 1.2538665 -s 3 -d 0 -p ack -e 40 -c 1 -i 10 -a 1 -x {7.0 1.0 3 ------- null}
+ -t 1.2538665 -s 0 -d 1 -p ack -e 40 -c 1 -i 10 -a 1 -x {7.0 1.0 3 ------- null}
- -t 1.2538665 -s 0 -d 1 -p ack -e 40 -c 1 -i 10 -a 1 -x {7.0 1.0 3 ------- null}
h -t 1.2538665 -s 0 -d 1 -p ack -e 40 -c 1 -i 10 -a 1 -x {7.0 1.0 -1 ------- null}
r -t 1.26199525 -s 1 -d 0 -p tcp -e 1000 -c 1 -i 14 -a 1 -x {1.0 7.0 5 ------- null}
+ -t 1.26199525 -s 0 -d 3 -p tcp -e 1000 -c 1 -i 14 -a 1 -x {1.0 7.0 5 ------- null}
- -t 1.26199525 -s 0 -d 3 -p tcp -e 1000 -c 1 -i 14 -a 1 -x {1.0 7.0 5 ------- null}
h -t 1.26199525 -s 0 -d 3 -p tcp -e 1000 -c 1 -i 14 -a 1 -x {1.0 7.0 -1 ------- null}
r -t 1.2640265 -s 0 -d 1 -p ack -e 40 -c 1 -i 10 -a 1 -x {7.0 1.0 3 ------- null}
+ -t 1.2640265 -s 1 -d 0 -p tcp -e 1000 -c 1 -i 15 -a 1 -x {1.0 7.0 6 ------- null}
- -t 1.2640265 -s 1 -d 0 -p tcp -e 1000 -c 1 -i 15 -a 1 -x {1.0 7.0 6 ------- null}
h -t 1.2640265 -s 1 -d 0 -p tcp -e 1000 -c 1 -i 15 -a 1 -x {1.0 7.0 -1 ------- null}
r -t 1.265448 -s 0 -d 3 -p tcp -e 1040 -c 2 -i 12 -a 2 -x {2.0 8.0 1 ------- null}
h -t 1.265448 -s 3 -d 9 -p tcp -e 1040 -c 2 -i 12 -a 2 -x {2.0 8.0 1 ------- null}
r -t 1.26989775 -s 3 -d 0 -p ack -e 40 -c 1 -i 11 -a 1 -x {7.0 1.0 4 ------- null}
+ -t 1.26989775 -s 0 -d 1 -p ack -e 40 -c 1 -i 11 -a 1 -x {7.0 1.0 4 ------- null}
- -t 1.26989775 -s 0 -d 1 -p ack -e 40 -c 1 -i 11 -a 1 -x {7.0 1.0 4 ------- null}
h -t 1.26989775 -s 0 -d 1 -p ack -e 40 -c 1 -i 11 -a 1 -x {7.0 1.0 -1 ------- null}
r -t 1.273768 -s 0 -d 3 -p tcp -e 1040 -c 2 -i 13 -a 2 -x {2.0 8.0 2 ------- null}
h -t 1.273768 -s 3 -d 9 -p tcp -e 1040 -c 2 -i 13 -a 2 -x {2.0 8.0 2 ------- null}
r -t 1.2780265 -s 1 -d 0 -p tcp -e 1000 -c 1 -i 15 -a 1 -x {1.0 7.0 6 ------- null}
+ -t 1.2780265 -s 0 -d 3 -p tcp -e 1000 -c 1 -i 15 -a 1 -x {1.0 7.0 6 ------- null}
- -t 1.2780265 -s 0 -d 3 -p tcp -e 1000 -c 1 -i 15 -a 1 -x {1.0 7.0 6 ------- null}
h -t 1.2780265 -s 0 -d 3 -p tcp -e 1000 -c 1 -i 15 -a 1 -x {1.0 7.0 -1 ------- null}
r -t 1.28005775 -s 0 -d 1 -p ack -e 40 -c 1 -i 11 -a 1 -x {7.0 1.0 4 ------- null}
+ -t 1.28005775 -s 1 -d 0 -p tcp -e 1000 -c 1 -i 16 -a 1 -x {1.0 7.0 7 ------- null}
- -t 1.28005775 -s 1 -d 0 -p tcp -e 1000 -c 1 -i 16 -a 1 -x {1.0 7.0 7 ------- null}
h -t 1.28005775 -s 1 -d 0 -p tcp -e 1000 -c 1 -i 16 -a 1 -x {1.0 7.0 -1 ------- null}
r -t 1.28999525 -s 0 -d 3 -p tcp -e 1000 -c 1 -i 14 -a 1 -x {1.0 7.0 5 ------- null}
h -t 1.28999525 -s 3 -d 9 -p tcp -e 1000 -c 1 -i 14 -a 1 -x {1.0 7.0 5 ------- null}
r -t 1.29405775 -s 1 -d 0 -p tcp -e 1000 -c 1 -i 16 -a 1 -x {1.0 7.0 7 ------- null}
+ -t 1.29405775 -s 0 -d 3 -p tcp -e 1000 -c 1 -i 16 -a 1 -x {1.0 7.0 7 ------- null}
- -t 1.29405775 -s 0 -d 3 -p tcp -e 1000 -c 1 -i 16 -a 1 -x {1.0 7.0 7 ------- null}
h -t 1.29405775 -s 0 -d 3 -p tcp -e 1000 -c 1 -i 16 -a 1 -x {1.0 7.0 -1 ------- null}
+ -t 1.305448 -s 3 -d 9 -p tcp -e 1040 -c 2 -i 12 -a 2 -x {2.0 8.0 1 ------- null}
- -t 1.305448 -s 3 -d 9 -p tcp -e 1040 -c 2 -i 12 -a 2 -x {2.0 8.0 1 ------- null}
h -t 1.305448 -s 3 -d 9 -p tcp -e 1040 -c 2 -i 12 -a 2 -x {2.0 8.0 -1 ------- null}
r -t 1.3060265 -s 0 -d 3 -p tcp -e 1000 -c 1 -i 15 -a 1 -x {1.0 7.0 6 ------- null}
h -t 1.3060265 -s 3 -d 9 -p tcp -e 1000 -c 1 -i 15 -a 1 -x {1.0 7.0 6 ------- null}
+ -t 1.313768 -s 3 -d 9 -p tcp -e 1040 -c 2 -i 13 -a 2 -x {2.0 8.0 2 ------- null}
r -t 1.32205775 -s 0 -d 3 -p tcp -e 1000 -c 1 -i 16 -a 1 -x {1.0 7.0 7 ------- null}
h -t 1.32205775 -s 3 -d 9 -p tcp -e 1000 -c 1 -i 16 -a 1 -x {1.0 7.0 7 ------- null}
- -t 1.32210425 -s 3 -d 9 -p tcp -e 1040 -c 2 -i 13 -a 2 -x {2.0 8.0 2 ------- null}
h -t 1.32210425 -s 3 -d 9 -p tcp -e 1040 -c 2 -i 13 -a 2 -x {2.0 8.0 -1 ------- null}
+ -t 1.32999525 -s 3 -d 9 -p tcp -e 1000 -c 1 -i 14 -a 1 -x {1.0 7.0 5 ------- null}
- -t 1.3387605 -s 3 -d 9 -p tcp -e 1000 -c 1 -i 14 -a 1 -x {1.0 7.0 5 ------- null}
h -t 1.3387605 -s 3 -d 9 -p tcp -e 1000 -c 1 -i 14 -a 1 -x {1.0 7.0 -1 ------- null}
+ -t 1.3460265 -s 3 -d 9 -p tcp -e 1000 -c 1 -i 15 -a 1 -x {1.0 7.0 6 ------- null}
- -t 1.35479175 -s 3 -d 9 -p tcp -e 1000 -c 1 -i 15 -a 1 -x {1.0 7.0 6 ------- null}
h -t 1.35479175 -s 3 -d 9 -p tcp -e 1000 -c 1 -i 15 -a 1 -x {1.0 7.0 -1 ------- null}
r -t 1.36192075 -s 9 -d 8 -p tcp -e 1040 -c 2 -i 12 -a 2 -x {2.0 8.0 1 ------- null}
h -t 1.36192075 -s 8 -d 9 -p ack -e 40 -c 2 -i 17 -a 2 -x {8.0 2.0 1 ------- null}
+ -t 1.36205775 -s 3 -d 9 -p tcp -e 1000 -c 1 -i 16 -a 1 -x {1.0 7.0 7 ------- null}
- -t 1.370823 -s 3 -d 9 -p tcp -e 1000 -c 1 -i 16 -a 1 -x {1.0 7.0 7 ------- null}
h -t 1.370823 -s 3 -d 9 -p tcp -e 1000 -c 1 -i 16 -a 1 -x {1.0 7.0 -1 ------- null}
r -t 1.378577 -s 9 -d 8 -p tcp -e 1040 -c 2 -i 13 -a 2 -x {2.0 8.0 2 ------- null}
h -t 1.378577 -s 8 -d 9 -p ack -e 40 -c 2 -i 18 -a 2 -x {8.0 2.0 2 ------- null}
r -t 1.39460825 -s 9 -d 7 -p tcp -e 1000 -c 1 -i 14 -a 1 -x {1.0 7.0 5 ------- null}
h -t 1.39460825 -s 7 -d 9 -p ack -e 40 -c 1 -i 19 -a 1 -x {7.0 1.0 5 ------- null}
+ -t 1.40192075 -s 8 -d 9 -p ack -e 40 -c 2 -i 17 -a 2 -x {8.0 2.0 1 ------- null}
- -t 1.40192075 -s 8 -d 9 -p ack -e 40 -c 2 -i 17 -a 2 -x {8.0 2.0 1 ------- null}
h -t 1.40192075 -s 8 -d 9 -p ack -e 40 -c 2 -i 17 -a 2 -x {8.0 2.0 -1 ------- null}
r -t 1.4106395 -s 9 -d 7 -p tcp -e 1000 -c 1 -i 15 -a 1 -x {1.0 7.0 6 ------- null}
h -t 1.4106395 -s 7 -d 9 -p ack -e 40 -c 1 -i 20 -a 1 -x {7.0 1.0 6 ------- null}
+ -t 1.418577 -s 8 -d 9 -p ack -e 40 -c 2 -i 18 -a 2 -x {8.0 2.0 2 ------- null}
- -t 1.418577 -s 8 -d 9 -p ack -e 40 -c 2 -i 18 -a 2 -x {8.0 2.0 2 ------- null}
h -t 1.418577 -s 8 -d 9 -p ack -e 40 -c 2 -i 18 -a 2 -x {8.0 2.0 -1 ------- null}
r -t 1.42667075 -s 9 -d 7 -p tcp -e 1000 -c 1 -i 16 -a 1 -x {1.0 7.0 7 ------- null}
h -t 1.42667075 -s 7 -d 9 -p ack -e 40 -c 1 -i 21 -a 1 -x {7.0 1.0 7 ------- null}
+ -t 1.43460825 -s 7 -d 9 -p ack -e 40 -c 1 -i 19 -a 1 -x {7.0 1.0 5 ------- null}
- -t 1.43460825 -s 7 -d 9 -p ack -e 40 -c 1 -i 19 -a 1 -x {7.0 1.0 5 ------- null}
h -t 1.43460825 -s 7 -d 9 -p ack -e 40 -c 1 -i 19 -a 1 -x {7.0 1.0 -1 ------- null}
r -t 1.44292475 -s 9 -d 3 -p ack -e 40 -c 2 -i 17 -a 2 -x {8.0 2.0 1 ------- null}
+ -t 1.44292475 -s 3 -d 0 -p ack -e 40 -c 2 -i 17 -a 2 -x {8.0 2.0 1 ------- null}
- -t 1.44292475 -s 3 -d 0 -p ack -e 40 -c 2 -i 17 -a 2 -x {8.0 2.0 1 ------- null}
h -t 1.44292475 -s 3 -d 0 -p ack -e 40 -c 2 -i 17 -a 2 -x {8.0 2.0 -1 ------- null}
+ -t 1.4506395 -s 7 -d 9 -p ack -e 40 -c 1 -i 20 -a 1 -x {7.0 1.0 6 ------- null}
- -t 1.4506395 -s 7 -d 9 -p ack -e 40 -c 1 -i 20 -a 1 -x {7.0 1.0 6 ------- null}
h -t 1.4506395 -s 7 -d 9 -p ack -e 40 -c 1 -i 20 -a 1 -x {7.0 1.0 -1 ------- null}
r -t 1.459581 -s 9 -d 3 -p ack -e 40 -c 2 -i 18 -a 2 -x {8.0 2.0 2 ------- null}
+ -t 1.459581 -s 3 -d 0 -p ack -e 40 -c 2 -i 18 -a 2 -x {8.0 2.0 2 ------- null}
- -t 1.459581 -s 3 -d 0 -p ack -e 40 -c 2 -i 18 -a 2 -x {8.0 2.0 2 ------- null}
h -t 1.459581 -s 3 -d 0 -p ack -e 40 -c 2 -i 18 -a 2 -x {8.0 2.0 -1 ------- null}
r -t 1.46324475 -s 3 -d 0 -p ack -e 40 -c 2 -i 17 -a 2 -x {8.0 2.0 1 ------- null}
+ -t 1.46324475 -s 0 -d 2 -p ack -e 40 -c 2 -i 17 -a 2 -x {8.0 2.0 1 ------- null}
- -t 1.46324475 -s 0 -d 2 -p ack -e 40 -c 2 -i 17 -a 2 -x {8.0 2.0 1 ------- null}
h -t 1.46324475 -s 0 -d 2 -p ack -e 40 -c 2 -i 17 -a 2 -x {8.0 2.0 -1 ------- null}
+ -t 1.46667075 -s 7 -d 9 -p ack -e 40 -c 1 -i 21 -a 1 -x {7.0 1.0 7 ------- null}
- -t 1.46667075 -s 7 -d 9 -p ack -e 40 -c 1 -i 21 -a 1 -x {7.0 1.0 7 ------- null}
h -t 1.46667075 -s 7 -d 9 -p ack -e 40 -c 1 -i 21 -a 1 -x {7.0 1.0 -1 ------- null}
r -t 1.47340475 -s 0 -d 2 -p ack -e 40 -c 2 -i 17 -a 2 -x {8.0 2.0 1 ------- null}
+ -t 1.47340475 -s 2 -d 0 -p tcp -e 1040 -c 2 -i 22 -a 2 -x {2.0 8.0 3 ------- null}
- -t 1.47340475 -s 2 -d 0 -p tcp -e 1040 -c 2 -i 22 -a 2 -x {2.0 8.0 3 ------- null}
h -t 1.47340475 -s 2 -d 0 -p tcp -e 1040 -c 2 -i 22 -a 2 -x {2.0 8.0 -1 ------- null}
+ -t 1.47340475 -s 2 -d 0 -p tcp -e 1040 -c 2 -i 23 -a 2 -x {2.0 8.0 4 ------- null}
r -t 1.47561225 -s 9 -d 3 -p ack -e 40 -c 1 -i 19 -a 1 -x {7.0 1.0 5 ------- null}
+ -t 1.47561225 -s 3 -d 0 -p ack -e 40 -c 1 -i 19 -a 1 -x {7.0 1.0 5 ------- null}
- -t 1.47561225 -s 3 -d 0 -p ack -e 40 -c 1 -i 19 -a 1 -x {7.0 1.0 5 ------- null}
h -t 1.47561225 -s 3 -d 0 -p ack -e 40 -c 1 -i 19 -a 1 -x {7.0 1.0 -1 ------- null}
- -t 1.47756475 -s 2 -d 0 -p tcp -e 1040 -c 2 -i 23 -a 2 -x {2.0 8.0 4 ------- null}
h -t 1.47756475 -s 2 -d 0 -p tcp -e 1040 -c 2 -i 23 -a 2 -x {2.0 8.0 -1 ------- null}
r -t 1.479901 -s 3 -d 0 -p ack -e 40 -c 2 -i 18 -a 2 -x {8.0 2.0 2 ------- null}
+ -t 1.479901 -s 0 -d 2 -p ack -e 40 -c 2 -i 18 -a 2 -x {8.0 2.0 2 ------- null}
- -t 1.479901 -s 0 -d 2 -p ack -e 40 -c 2 -i 18 -a 2 -x {8.0 2.0 2 ------- null}
h -t 1.479901 -s 0 -d 2 -p ack -e 40 -c 2 -i 18 -a 2 -x {8.0 2.0 -1 ------- null}
r -t 1.48756475 -s 2 -d 0 -p tcp -e 1040 -c 2 -i 22 -a 2 -x {2.0 8.0 3 ------- null}
+ -t 1.48756475 -s 0 -d 3 -p tcp -e 1040 -c 2 -i 22 -a 2 -x {2.0 8.0 3 ------- null}
- -t 1.48756475 -s 0 -d 3 -p tcp -e 1040 -c 2 -i 22 -a 2 -x {2.0 8.0 3 ------- null}
h -t 1.48756475 -s 0 -d 3 -p tcp -e 1040 -c 2 -i 22 -a 2 -x {2.0 8.0 -1 ------- null}
r -t 1.490061 -s 0 -d 2 -p ack -e 40 -c 2 -i 18 -a 2 -x {8.0 2.0 2 ------- null}
+ -t 1.490061 -s 2 -d 0 -p tcp -e 1040 -c 2 -i 24 -a 2 -x {2.0 8.0 5 ------- null}
- -t 1.490061 -s 2 -d 0 -p tcp -e 1040 -c 2 -i 24 -a 2 -x {2.0 8.0 5 ------- null}
h -t 1.490061 -s 2 -d 0 -p tcp -e 1040 -c 2 -i 24 -a 2 -x {2.0 8.0 -1 ------- null}
+ -t 1.490061 -s 2 -d 0 -p tcp -e 1040 -c 2 -i 25 -a 2 -x {2.0 8.0 6 ------- null}
r -t 1.4916435 -s 9 -d 3 -p ack -e 40 -c 1 -i 20 -a 1 -x {7.0 1.0 6 ------- null}
+ -t 1.4916435 -s 3 -d 0 -p ack -e 40 -c 1 -i 20 -a 1 -x {7.0 1.0 6 ------- null}
- -t 1.4916435 -s 3 -d 0 -p ack -e 40 -c 1 -i 20 -a 1 -x {7.0 1.0 6 ------- null}
h -t 1.4916435 -s 3 -d 0 -p ack -e 40 -c 1 -i 20 -a 1 -x {7.0 1.0 -1 ------- null}
r -t 1.49172475 -s 2 -d 0 -p tcp -e 1040 -c 2 -i 23 -a 2 -x {2.0 8.0 4 ------- null}
+ -t 1.49172475 -s 0 -d 3 -p tcp -e 1040 -c 2 -i 23 -a 2 -x {2.0 8.0 4 ------- null}
- -t 1.494221 -s 2 -d 0 -p tcp -e 1040 -c 2 -i 25 -a 2 -x {2.0 8.0 6 ------- null}
h -t 1.494221 -s 2 -d 0 -p tcp -e 1040 -c 2 -i 25 -a 2 -x {2.0 8.0 -1 ------- null}
- -t 1.49588475 -s 0 -d 3 -p tcp -e 1040 -c 2 -i 23 -a 2 -x {2.0 8.0 4 ------- null}
h -t 1.49588475 -s 0 -d 3 -p tcp -e 1040 -c 2 -i 23 -a 2 -x {2.0 8.0 -1 ------- null}
r -t 1.49593225 -s 3 -d 0 -p ack -e 40 -c 1 -i 19 -a 1 -x {7.0 1.0 5 ------- null}
+ -t 1.49593225 -s 0 -d 1 -p ack -e 40 -c 1 -i 19 -a 1 -x {7.0 1.0 5 ------- null}
- -t 1.49593225 -s 0 -d 1 -p ack -e 40 -c 1 -i 19 -a 1 -x {7.0 1.0 5 ------- null}
h -t 1.49593225 -s 0 -d 1 -p ack -e 40 -c 1 -i 19 -a 1 -x {7.0 1.0 -1 ------- null}
r -t 1.504221 -s 2 -d 0 -p tcp -e 1040 -c 2 -i 24 -a 2 -x {2.0 8.0 5 ------- null}
+ -t 1.504221 -s 0 -d 3 -p tcp -e 1040 -c 2 -i 24 -a 2 -x {2.0 8.0 5 ------- null}
- -t 1.504221 -s 0 -d 3 -p tcp -e 1040 -c 2 -i 24 -a 2 -x {2.0 8.0 5 ------- null}
h -t 1.504221 -s 0 -d 3 -p tcp -e 1040 -c 2 -i 24 -a 2 -x {2.0 8.0 -1 ------- null}
r -t 1.50609225 -s 0 -d 1 -p ack -e 40 -c 1 -i 19 -a 1 -x {7.0 1.0 5 ------- null}
+ -t 1.50609225 -s 1 -d 0 -p tcp -e 1000 -c 1 -i 26 -a 1 -x {1.0 7.0 8 ------- null}
- -t 1.50609225 -s 1 -d 0 -p tcp -e 1000 -c 1 -i 26 -a 1 -x {1.0 7.0 8 ------- null}
h -t 1.50609225 -s 1 -d 0 -p tcp -e 1000 -c 1 -i 26 -a 1 -x {1.0 7.0 -1 ------- null}
+ -t 1.50609225 -s 1 -d 0 -p tcp -e 1000 -c 1 -i 27 -a 1 -x {1.0 7.0 9 ------- null}
r -t 1.50767475 -s 9 -d 3 -p ack -e 40 -c 1 -i 21 -a 1 -x {7.0 1.0 7 ------- null}
+ -t 1.50767475 -s 3 -d 0 -p ack -e 40 -c 1 -i 21 -a 1 -x {7.0 1.0 7 ------- null}
- -t 1.50767475 -s 3 -d 0 -p ack -e 40 -c 1 -i 21 -a 1 -x {7.0 1.0 7 ------- null}
h -t 1.50767475 -s 3 -d 0 -p ack -e 40 -c 1 -i 21 -a 1 -x {7.0 1.0 -1 ------- null}
r -t 1.508381 -s 2 -d 0 -p tcp -e 1040 -c 2 -i 25 -a 2 -x {2.0 8.0 6 ------- null}
+ -t 1.508381 -s 0 -d 3 -p tcp -e 1040 -c 2 -i 25 -a 2 -x {2.0 8.0 6 ------- null}
- -t 1.51009225 -s 1 -d 0 -p tcp -e 1000 -c 1 -i 27 -a 1 -x {1.0 7.0 9 ------- null}
h -t 1.51009225 -s 1 -d 0 -p tcp -e 1000 -c 1 -i 27 -a 1 -x {1.0 7.0 -1 ------- null}
r -t 1.5119635 -s 3 -d 0 -p ack -e 40 -c 1 -i 20 -a 1 -x {7.0 1.0 6 ------- null}
+ -t 1.5119635 -s 0 -d 1 -p ack -e 40 -c 1 -i 20 -a 1 -x {7.0 1.0 6 ------- null}
- -t 1.5119635 -s 0 -d 1 -p ack -e 40 -c 1 -i 20 -a 1 -x {7.0 1.0 6 ------- null}
h -t 1.5119635 -s 0 -d 1 -p ack -e 40 -c 1 -i 20 -a 1 -x {7.0 1.0 -1 ------- null}
- -t 1.512541 -s 0 -d 3 -p tcp -e 1040 -c 2 -i 25 -a 2 -x {2.0 8.0 6 ------- null}
h -t 1.512541 -s 0 -d 3 -p tcp -e 1040 -c 2 -i 25 -a 2 -x {2.0 8.0 -1 ------- null}
r -t 1.51588475 -s 0 -d 3 -p tcp -e 1040 -c 2 -i 22 -a 2 -x {2.0 8.0 3 ------- null}
h -t 1.51588475 -s 3 -d 9 -p tcp -e 1040 -c 2 -i 22 -a 2 -x {2.0 8.0 3 ------- null}
r -t 1.52009225 -s 1 -d 0 -p tcp -e 1000 -c 1 -i 26 -a 1 -x {1.0 7.0 8 ------- null}
+ -t 1.52009225 -s 0 -d 3 -p tcp -e 1000 -c 1 -i 26 -a 1 -x {1.0 7.0 8 ------- null}
- -t 1.520861 -s 0 -d 3 -p tcp -e 1000 -c 1 -i 26 -a 1 -x {1.0 7.0 8 ------- null}
h -t 1.520861 -s 0 -d 3 -p tcp -e 1000 -c 1 -i 26 -a 1 -x {1.0 7.0 -1 ------- null}
r -t 1.5221235 -s 0 -d 1 -p ack -e 40 -c 1 -i 20 -a 1 -x {7.0 1.0 6 ------- null}
+ -t 1.5221235 -s 1 -d 0 -p tcp -e 1000 -c 1 -i 28 -a 1 -x {1.0 7.0 10 ------- null}
- -t 1.5221235 -s 1 -d 0 -p tcp -e 1000 -c 1 -i 28 -a 1 -x {1.0 7.0 10 ------- null}
h -t 1.5221235 -s 1 -d 0 -p tcp -e 1000 -c 1 -i 28 -a 1 -x {1.0 7.0 -1 ------- null}
+ -t 1.5221235 -s 1 -d 0 -p tcp -e 1000 -c 1 -i 29 -a 1 -x {1.0 7.0 11 ------- null}
r -t 1.52409225 -s 1 -d 0 -p tcp -e 1000 -c 1 -i 27 -a 1 -x {1.0 7.0 9 ------- null}
+ -t 1.52409225 -s 0 -d 3 -p tcp -e 1000 -c 1 -i 27 -a 1 -x {1.0 7.0 9 ------- null}
r -t 1.52420475 -s 0 -d 3 -p tcp -e 1040 -c 2 -i 23 -a 2 -x {2.0 8.0 4 ------- null}
h -t 1.52420475 -s 3 -d 9 -p tcp -e 1040 -c 2 -i 23 -a 2 -x {2.0 8.0 4 ------- null}
- -t 1.5261235 -s 1 -d 0 -p tcp -e 1000 -c 1 -i 29 -a 1 -x {1.0 7.0 11 ------- null}
h -t 1.5261235 -s 1 -d 0 -p tcp -e 1000 -c 1 -i 29 -a 1 -x {1.0 7.0 -1 ------- null}
r -t 1.52799475 -s 3 -d 0 -p ack -e 40 -c 1 -i 21 -a 1 -x {7.0 1.0 7 ------- null}
+ -t 1.52799475 -s 0 -d 1 -p ack -e 40 -c 1 -i 21 -a 1 -x {7.0 1.0 7 ------- null}
- -t 1.52799475 -s 0 -d 1 -p ack -e 40 -c 1 -i 21 -a 1 -x {7.0 1.0 7 ------- null}
h -t 1.52799475 -s 0 -d 1 -p ack -e 40 -c 1 -i 21 -a 1 -x {7.0 1.0 -1 ------- null}
- -t 1.528861 -s 0 -d 3 -p tcp -e 1000 -c 1 -i 27 -a 1 -x {1.0 7.0 9 ------- null}
h -t 1.528861 -s 0 -d 3 -p tcp -e 1000 -c 1 -i 27 -a 1 -x {1.0 7.0 -1 ------- null}
r -t 1.532541 -s 0 -d 3 -p tcp -e 1040 -c 2 -i 24 -a 2 -x {2.0 8.0 5 ------- null}
h -t 1.532541 -s 3 -d 9 -p tcp -e 1040 -c 2 -i 24 -a 2 -x {2.0 8.0 5 ------- null}
r -t 1.5361235 -s 1 -d 0 -p tcp -e 1000 -c 1 -i 28 -a 1 -x {1.0 7.0 10 ------- null}
+ -t 1.5361235 -s 0 -d 3 -p tcp -e 1000 -c 1 -i 28 -a 1 -x {1.0 7.0 10 ------- null}
- -t 1.536861 -s 0 -d 3 -p tcp -e 1000 -c 1 -i 28 -a 1 -x {1.0 7.0 10 ------- null}
h -t 1.536861 -s 0 -d 3 -p tcp -e 1000 -c 1 -i 28 -a 1 -x {1.0 7.0 -1 ------- null}
r -t 1.53815475 -s 0 -d 1 -p ack -e 40 -c 1 -i 21 -a 1 -x {7.0 1.0 7 ------- null}
+ -t 1.53815475 -s 1 -d 0 -p tcp -e 1000 -c 1 -i 30 -a 1 -x {1.0 7.0 12 ------- null}
- -t 1.53815475 -s 1 -d 0 -p tcp -e 1000 -c 1 -i 30 -a 1 -x {1.0 7.0 12 ------- null}
h -t 1.53815475 -s 1 -d 0 -p tcp -e 1000 -c 1 -i 30 -a 1 -x {1.0 7.0 -1 ------- null}
+ -t 1.53815475 -s 1 -d 0 -p tcp -e 1000 -c 1 -i 31 -a 1 -x {1.0 7.0 13 ------- null}
r -t 1.5401235 -s 1 -d 0 -p tcp -e 1000 -c 1 -i 29 -a 1 -x {1.0 7.0 11 ------- null}
+ -t 1.5401235 -s 0 -d 3 -p tcp -e 1000 -c 1 -i 29 -a 1 -x {1.0 7.0 11 ------- null}